 Entering Gaussian System, Link 0=g16
 Initial command:
 /share/apps/g16_avx/g16/l1.exe "/state/partition1/4133/Gau-27219.inp" -scrdir="/state/partition1/4133/"
 Entering Link 1 = /share/apps/g16_avx/g16/l1.exe PID=     27221.
  
 Copyright (c) 1988,1990,1992,1993,1995,1998,2003,2009,2016,
            Gaussian, Inc.  All Rights Reserved.
  
 This is part of the Gaussian(R) 16 program.  It is based on
 the Gaussian(R) 09 system (copyright 2009, Gaussian, Inc.),
 the Gaussian(R) 03 system (copyright 2003, Gaussian, Inc.),
 the Gaussian(R) 98 system (copyright 1998, Gaussian, Inc.),
 the Gaussian(R) 94 system (copyright 1995, Gaussian, Inc.),
 the Gaussian 92(TM) system (copyright 1992, Gaussian, Inc.),
 the Gaussian 90(TM) system (copyright 1990, Gaussian, Inc.),
 the Gaussian 88(TM) system (copyright 1988, Gaussian, Inc.),
 the Gaussian 86(TM) system (copyright 1986, Carnegie Mellon
 University), and the Gaussian 82(TM) system (copyright 1983,
 Carnegie Mellon University). Gaussian is a federally registered
 trademark of Gaussian, Inc.
  
 This software contains proprietary and confidential information,
 including trade secrets, belonging to Gaussian, Inc.
  
 This software is provided under written license and may be
 used, copied, transmitted, or stored only in accord with that
 written license.
  
 The following legend is applicable only to US Government
 contracts under FAR:
  
                    RESTRICTED RIGHTS LEGEND
  
 Use, reproduction and disclosure by the US Government is
 subject to restrictions as set forth in subparagraphs (a)
 and (c) of the Commercial Computer Software - Restricted
 Rights clause in FAR 52.227-19.
  
 Gaussian, Inc.
 340 Quinnipiac St., Bldg. 40, Wallingford CT 06492
  
  
 ---------------------------------------------------------------
 Warning -- This program may not be used in any manner that
 competes with the business of Gaussian, Inc. or will provide
 assistance to any competitor of Gaussian, Inc.  The licensee
 of this program is prohibited from giving any competitor of
 Gaussian, Inc. access to this program.  By using this program,
 the user acknowledges that Gaussian, Inc. is engaged in the
 business of creating and licensing software in the field of
 computational chemistry and represents and warrants to the
 licensee that it is not a competitor of Gaussian, Inc. and that
 it will not use this program in any manner prohibited above.
 ---------------------------------------------------------------
  

 Cite this work as:
 Gaussian 16, Revision A.03,
 M. J. Frisch, G. W. Trucks, H. B. Schlegel, G. E. Scuseria, 
 M. A. Robb, J. R. Cheeseman, G. Scalmani, V. Barone, 
 G. A. Petersson, H. Nakatsuji, X. Li, M. Caricato, A. V. Marenich, 
 J. Bloino, B. G. Janesko, R. Gomperts, B. Mennucci, H. P. Hratchian, 
 J. V. Ortiz, A. F. Izmaylov, J. L. Sonnenberg, D. Williams-Young, 
 F. Ding, F. Lipparini, F. Egidi, J. Goings, B. Peng, A. Petrone, 
 T. Henderson, D. Ranasinghe, V. G. Zakrzewski, J. Gao, N. Rega, 
 G. Zheng, W. Liang, M. Hada, M. Ehara, K. Toyota, R. Fukuda, 
 J. Hasegawa, M. Ishida, T. Nakajima, Y. Honda, O. Kitao, H. Nakai, 
 T. Vreven, K. Throssell, J. A. Montgomery, Jr., J. E. Peralta, 
 F. Ogliaro, M. J. Bearpark, J. J. Heyd, E. N. Brothers, K. N. Kudin, 
 V. N. Staroverov, T. A. Keith, R. Kobayashi, J. Normand, 
 K. Raghavachari, A. P. Rendell, J. C. Burant, S. S. Iyengar, 
 J. Tomasi, M. Cossi, J. M. Millam, M. Klene, C. Adamo, R. Cammi, 
 J. W. Ochterski, R. L. Martin, K. Morokuma, O. Farkas, 
 J. B. Foresman, and D. J. Fox, Gaussian, Inc., Wallingford CT, 2016.
 
 ******************************************
 Gaussian 16:  ES64L-G16RevA.03 25-Dec-2016
                17-Nov-2018 
 ******************************************
 %chk=uts10.chk
 %mem=30GB
 %nprocs=16
 Will use up to   16 processors via shared memory.
 ----------------------------------------------------------------------
 #p opt=(ts,readfc,noeigen,maxcycle=1024) gen int=ultrafine wb97xd pseu
 do freq=noraman g09defaults 6d scf=qc
 ----------------------------------------------------------------------
 1/5=1,6=1024,10=3,11=1,14=-1,18=20,26=4,38=1,158=3,167=1/1,3;
 2/9=110,12=2,17=6,18=5,40=1/2;
 3/5=7,8=2,11=2,16=1,17=8,25=1,27=10,30=1,71=1,74=-58,75=-5,158=3/1,2,3;
 4/60=-1/1;
 5/5=2,8=3,38=5,87=10/8;
 6/7=2,8=2,9=2,10=2,28=1,87=10/1;
 7/87=10/1,2,3,16;
 1/5=1,6=1024,11=1,14=-1,18=20,26=4,158=3,167=1/3(2);
 2/9=110/2;
 99//99;
 2/9=110/2;
 3/5=7,6=1,8=2,11=2,16=1,17=8,25=1,27=10,30=1,71=1,74=-58,75=-5,82=7,158=3/1,2,3;
 4/5=5,16=3,60=-1,69=1/1;
 5/5=2,8=3,38=5,87=10/8;
 7/87=10/1,2,3,16;
 1/5=1,6=1024,11=1,14=-1,18=20,26=4,158=3,167=1/3(-5);
 2/9=110/2;
 6/7=2,8=2,9=2,10=2,19=2,28=1,87=10/1;
 99/9=1/99;
 Using 2006 physical constants.
 Leave Link    1 at Sat Nov 17 22:37:43 2018, MaxMem=  4026531840 cpu:               2.0 elap:               0.2
 (Enter /share/apps/g16_avx/g16/l101.exe)
 -------------------
 Title Card Required
 -------------------
 Symbolic Z-matrix:
 Charge =  2 Multiplicity = 5
 Fe                   -0.02364  -0.01367  -0.19815 
 N                     0.44183   2.09606  -0.06699 
 N                    -0.02472   0.02739  -2.43221 
 N                     1.76658  -1.29565  -0.30706 
 N                    -2.1505   -0.62675  -0.30463 
 O                    -0.08945  -0.17509   1.47728 
 C                    -2.89385  -0.21095  -1.51689 
 H                    -3.94892  -0.49137  -1.42997 
 H                    -2.84182   0.87452  -1.63596 
 H                    -2.49748  -0.70899  -2.4023 
 C                    -2.90447  -0.1315    0.87859 
 H                    -2.98029   0.95525   0.83885 
 H                    -3.9155   -0.55216   0.87381 
 H                    -2.39101  -0.42471   1.79073 
 C                    -2.10195  -2.10819  -0.24665 
 H                    -3.11402  -2.52789  -0.25566 
 H                    -1.56205  -2.49961  -1.11261 
 H                    -1.60334  -2.41788   0.6735 
 C                     2.42126  -1.36862   1.02753 
 H                     1.72286  -1.77673   1.75465 
 H                     3.30695  -2.00983   0.96932 
 H                     2.72333  -0.37113   1.34621 
 C                     1.35699  -2.66491  -0.70061 
 H                     0.86596  -2.65133  -1.67642 
 H                     2.23103  -3.32204  -0.7696 
 H                     0.67591  -3.07362   0.0469 
 C                     2.76114  -0.78309  -1.27948 
 H                     2.96529   0.2731   -1.08881 
 H                     3.70334  -1.33375  -1.18807 
 H                     2.40524  -0.91685  -2.30127 
 C                    -0.78793   2.73532   0.46547 
 H                    -0.63038   3.81047   0.60308 
 H                    -1.60993   2.5967   -0.24237 
 H                    -1.04335   2.28371   1.4241 
 C                     1.5482    2.28642   0.90643 
 H                     2.46547   1.84464   0.51187 
 H                     1.72357   3.35478   1.07146 
 H                     1.28969   1.80812   1.84957 
 C                     0.81468   2.75347  -1.34032 
 H                    -0.01002   2.69634  -2.05255 
 H                     1.03765   3.81199  -1.1693 
 H                     1.70797   2.2846   -1.7588 
 H                    -0.13999  -0.89151  -2.85847 
 H                    -0.77523   0.5978   -2.81786 
 H                     0.83289   0.40775  -2.82781 
 C                    -0.07809  -0.43631   4.01365 
 H                    -0.86648   0.22494   4.37189 
 H                    -0.08547  -0.31556   2.80508 
 H                     0.91988  -0.12692   4.32404 
 H                    -0.28086  -1.49102   4.19723 
 
 Add virtual bond connecting atoms H48        and O6         Dist= 2.52D+00.
 Add virtual bond connecting atoms H45        and H30        Dist= 4.01D+00.
 Add virtual bond connecting atoms H44        and H10        Dist= 4.16D+00.
 Add virtual bond connecting atoms N3         and Fe1        Dist= 4.22D+00.
 Add virtual bond connecting atoms N4         and Fe1        Dist= 4.17D+00.
 Add virtual bond connecting atoms N5         and Fe1        Dist= 4.19D+00.
 Add virtual bond connecting atoms H14        and O6         Dist= 4.41D+00.
 Add virtual bond connecting atoms H28        and H36        Dist= 4.34D+00.
 ITRead=  0  0  0  0  0  0  0  0  0  0  0  0  0  0  0  0  0  0  0  0
 ITRead=  0  0  0  0  0  0  0  0  0  0  0  0  0  0  0  0  0  0  0  0
 ITRead=  0  0  0  0  0  0  0  0  0  0
 MicOpt= -1 -1 -1 -1 -1 -1 -1 -1 -1 -1 -1 -1 -1 -1 -1 -1 -1 -1 -1 -1
 MicOpt= -1 -1 -1 -1 -1 -1 -1 -1 -1 -1 -1 -1 -1 -1 -1 -1 -1 -1 -1 -1
 MicOpt= -1 -1 -1 -1 -1 -1 -1 -1 -1 -1
 NAtoms=     50 NQM=       50 NQMF=       0 NMMI=      0 NMMIF=      0
                NMic=       0 NMicF=      0.
                    Isotopes and Nuclear Properties:
 (Nuclear quadrupole moments (NQMom) in fm**2, nuclear magnetic moments (NMagM)
  in nuclear magnetons)

  Atom         1           2           3           4           5           6           7           8           9          10
 IAtWgt=          56          14          14          14          14          16          12           1           1           1
 AtmWgt=  55.9349393  14.0030740  14.0030740  14.0030740  14.0030740  15.9949146  12.0000000   1.0078250   1.0078250   1.0078250
 NucSpn=           0           2           2           2           2           0           0           1           1           1
 AtZEff=  -0.0000000  -0.0000000  -0.0000000  -0.0000000  -0.0000000  -0.0000000  -0.0000000  -0.0000000  -0.0000000  -0.0000000
 NQMom=    0.0000000   2.0440000   2.0440000   2.0440000   2.0440000   0.0000000   0.0000000   0.0000000   0.0000000   0.0000000
 NMagM=    0.0000000   0.4037610   0.4037610   0.4037610   0.4037610   0.0000000   0.0000000   2.7928460   2.7928460   2.7928460
 AtZNuc=  26.0000000   7.0000000   7.0000000   7.0000000   7.0000000   8.0000000   6.0000000   1.0000000   1.0000000   1.0000000

  Atom        11          12          13          14          15          16          17          18          19          20
 IAtWgt=          12           1           1           1          12           1           1           1          12           1
 AtmWgt=  12.0000000   1.0078250   1.0078250   1.0078250  12.0000000   1.0078250   1.0078250   1.0078250  12.0000000   1.0078250
 NucSpn=           0           1           1           1           0           1           1           1           0           1
 AtZEff=  -0.0000000  -0.0000000  -0.0000000  -0.0000000  -0.0000000  -0.0000000  -0.0000000  -0.0000000  -0.0000000  -0.0000000
 NQMom=    0.0000000   0.0000000   0.0000000   0.0000000   0.0000000   0.0000000   0.0000000   0.0000000   0.0000000   0.0000000
 NMagM=    0.0000000   2.7928460   2.7928460   2.7928460   0.0000000   2.7928460   2.7928460   2.7928460   0.0000000   2.7928460
 AtZNuc=   6.0000000   1.0000000   1.0000000   1.0000000   6.0000000   1.0000000   1.0000000   1.0000000   6.0000000   1.0000000

  Atom        21          22          23          24          25          26          27          28          29          30
 IAtWgt=           1           1          12           1           1           1          12           1           1           1
 AtmWgt=   1.0078250   1.0078250  12.0000000   1.0078250   1.0078250   1.0078250  12.0000000   1.0078250   1.0078250   1.0078250
 NucSpn=           1           1           0           1           1           1           0           1           1           1
 AtZEff=  -0.0000000  -0.0000000  -0.0000000  -0.0000000  -0.0000000  -0.0000000  -0.0000000  -0.0000000  -0.0000000  -0.0000000
 NQMom=    0.0000000   0.0000000   0.0000000   0.0000000   0.0000000   0.0000000   0.0000000   0.0000000   0.0000000   0.0000000
 NMagM=    2.7928460   2.7928460   0.0000000   2.7928460   2.7928460   2.7928460   0.0000000   2.7928460   2.7928460   2.7928460
 AtZNuc=   1.0000000   1.0000000   6.0000000   1.0000000   1.0000000   1.0000000   6.0000000   1.0000000   1.0000000   1.0000000

  Atom        31          32          33          34          35          36          37          38          39          40
 IAtWgt=          12           1           1           1          12           1           1           1          12           1
 AtmWgt=  12.0000000   1.0078250   1.0078250   1.0078250  12.0000000   1.0078250   1.0078250   1.0078250  12.0000000   1.0078250
 NucSpn=           0           1           1           1           0           1           1           1           0           1
 AtZEff=  -0.0000000  -0.0000000  -0.0000000  -0.0000000  -0.0000000  -0.0000000  -0.0000000  -0.0000000  -0.0000000  -0.0000000
 NQMom=    0.0000000   0.0000000   0.0000000   0.0000000   0.0000000   0.0000000   0.0000000   0.0000000   0.0000000   0.0000000
 NMagM=    0.0000000   2.7928460   2.7928460   2.7928460   0.0000000   2.7928460   2.7928460   2.7928460   0.0000000   2.7928460
 AtZNuc=   6.0000000   1.0000000   1.0000000   1.0000000   6.0000000   1.0000000   1.0000000   1.0000000   6.0000000   1.0000000

  Atom        41          42          43          44          45          46          47          48          49          50
 IAtWgt=           1           1           1           1           1          12           1           1           1           1
 AtmWgt=   1.0078250   1.0078250   1.0078250   1.0078250   1.0078250  12.0000000   1.0078250   1.0078250   1.0078250   1.0078250
 NucSpn=           1           1           1           1           1           0           1           1           1           1
 AtZEff=  -0.0000000  -0.0000000  -0.0000000  -0.0000000  -0.0000000  -0.0000000  -0.0000000  -0.0000000  -0.0000000  -0.0000000
 NQMom=    0.0000000   0.0000000   0.0000000   0.0000000   0.0000000   0.0000000   0.0000000   0.0000000   0.0000000   0.0000000
 NMagM=    2.7928460   2.7928460   2.7928460   2.7928460   2.7928460   0.0000000   2.7928460   2.7928460   2.7928460   2.7928460
 AtZNuc=   1.0000000   1.0000000   1.0000000   1.0000000   1.0000000   6.0000000   1.0000000   1.0000000   1.0000000   1.0000000
 Leave Link  101 at Sat Nov 17 22:37:44 2018, MaxMem=  4026531840 cpu:               6.2 elap:               0.5
 (Enter /share/apps/g16_avx/g16/l103.exe)

 GradGradGradGradGradGradGradGradGradGradGradGradGradGradGradGradGradGrad
 Berny optimization.
 Initialization pass.
 Force constant matrix read from checkpoint file:
 "uts10.chk"
 NVar current= 340 chk= 340 common= 340.
                           ----------------------------
                           !    Initial Parameters    !
                           ! (Angstroms and Degrees)  !
 --------------------------                            --------------------------
 ! Name  Definition              Value          Derivative Info.                !
 --------------------------------------------------------------------------------
 ! R1    R(1,2)                  2.1644         D2E/DX2 =    0.0774             !
 ! R2    R(1,3)                  2.2344         D2E/DX2 =    0.039              !
 ! R3    R(1,4)                  2.2046         D2E/DX2 =    0.067              !
 ! R4    R(1,5)                  2.216          D2E/DX2 =    0.0368             !
 ! R5    R(1,6)                  1.6845         D2E/DX2 =    0.2501             !
 ! R6    R(2,31)                 1.4848         D2E/DX2 =    0.314              !
 ! R7    R(2,35)                 1.4859         D2E/DX2 =    0.2744             !
 ! R8    R(2,39)                 1.4807         D2E/DX2 =    0.3166             !
 ! R9    R(3,43)                 1.0195         D2E/DX2 =    0.4556             !
 ! R10   R(3,44)                 1.0185         D2E/DX2 =    0.4076             !
 ! R11   R(3,45)                 1.0182         D2E/DX2 =    0.4056             !
 ! R12   R(4,19)                 1.4883         D2E/DX2 =    0.3107             !
 ! R13   R(4,23)                 1.4824         D2E/DX2 =    0.315              !
 ! R14   R(4,27)                 1.4824         D2E/DX2 =    0.2521             !
 ! R15   R(5,7)                  1.4816         D2E/DX2 =    0.2795             !
 ! R16   R(5,11)                 1.4879         D2E/DX2 =    0.2518             !
 ! R17   R(5,15)                 1.4834         D2E/DX2 =    0.3145             !
 ! R18   R(6,14)                 2.3362         D2E/DX2 =    0.0151             !
 ! R19   R(6,48)                 1.3352         D2E/DX2 =    0.0153             !
 ! R20   R(7,8)                  1.0952         D2E/DX2 =    0.343              !
 ! R21   R(7,9)                  1.0932         D2E/DX2 =    0.3474             !
 ! R22   R(7,10)                 1.0905         D2E/DX2 =    0.3004             !
 ! R23   R(10,44)                2.2015         D2E/DX2 =    0.0115             !
 ! R24   R(11,12)                1.0901         D2E/DX2 =    0.3567             !
 ! R25   R(11,13)                1.0951         D2E/DX2 =    0.3425             !
 ! R26   R(11,14)                1.087          D2E/DX2 =    0.3062             !
 ! R27   R(15,16)                1.0957         D2E/DX2 =    0.3414             !
 ! R28   R(15,17)                1.093          D2E/DX2 =    0.3496             !
 ! R29   R(15,18)                1.0914         D2E/DX2 =    0.3523             !
 ! R30   R(19,20)                1.0877         D2E/DX2 =    0.3619             !
 ! R31   R(19,21)                1.095          D2E/DX2 =    0.3432             !
 ! R32   R(19,22)                1.0899         D2E/DX2 =    0.3569             !
 ! R33   R(23,24)                1.0925         D2E/DX2 =    0.3492             !
 ! R34   R(23,25)                1.0957         D2E/DX2 =    0.3421             !
 ! R35   R(23,26)                1.0907         D2E/DX2 =    0.3551             !
 ! R36   R(27,28)                1.0925         D2E/DX2 =    0.2997             !
 ! R37   R(27,29)                1.0951         D2E/DX2 =    0.3427             !
 ! R38   R(27,30)                1.0902         D2E/DX2 =    0.2981             !
 ! R39   R(28,36)                2.2982         D2E/DX2 =    0.0095             !
 ! R40   R(30,45)                2.1223         D2E/DX2 =    0.0122             !
 ! R41   R(31,32)                1.0953         D2E/DX2 =    0.3425             !
 ! R42   R(31,33)                1.0936         D2E/DX2 =    0.3474             !
 ! R43   R(31,34)                1.09           D2E/DX2 =    0.3564             !
 ! R44   R(35,36)                1.0919         D2E/DX2 =    0.3035             !
 ! R45   R(35,37)                1.0952         D2E/DX2 =    0.3429             !
 ! R46   R(35,38)                1.0886         D2E/DX2 =    0.3591             !
 ! R47   R(39,40)                1.0912         D2E/DX2 =    0.3523             !
 ! R48   R(39,41)                1.0952         D2E/DX2 =    0.3433             !
 ! R49   R(39,42)                1.0922         D2E/DX2 =    0.3494             !
 ! R50   R(46,47)                1.0896         D2E/DX2 =    0.3593             !
 ! R51   R(46,48)                1.2146         D2E/DX2 =    0.1537             !
 ! R52   R(46,49)                1.09           D2E/DX2 =    0.3589             !
 ! R53   R(46,50)                1.0896         D2E/DX2 =    0.3594             !
 ! A1    A(2,1,3)               92.4521         D2E/DX2 =    0.0092             !
 ! A2    A(2,1,4)              113.2762         D2E/DX2 =    0.0056             !
 ! A3    A(2,1,5)              118.6188         D2E/DX2 =    0.0062             !
 ! A4    A(2,1,6)               92.3805         D2E/DX2 =    0.0091             !
 ! A5    A(3,1,4)               87.8042         D2E/DX2 =    0.0053             !
 ! A6    A(3,1,5)               87.5114         D2E/DX2 =    0.005              !
 ! A7    A(4,1,5)              128.0331         D2E/DX2 =    0.0064             !
 ! A8    A(4,1,6)               91.44           D2E/DX2 =    0.0089             !
 ! A9    A(5,1,6)               89.0709         D2E/DX2 =    0.0067             !
 ! A10   A(1,2,31)             105.2648         D2E/DX2 =    0.0188             !
 ! A11   A(1,2,35)             108.9476         D2E/DX2 =    0.0179             !
 ! A12   A(1,2,39)             115.7723         D2E/DX2 =    0.0223             !
 ! A13   A(31,2,35)            109.0638         D2E/DX2 =    0.023              !
 ! A14   A(31,2,39)            109.0128         D2E/DX2 =    0.0264             !
 ! A15   A(35,2,39)            108.6016         D2E/DX2 =    0.0258             !
 ! A16   A(1,3,43)             113.6741         D2E/DX2 =    0.0173             !
 ! A17   A(1,3,44)             112.9061         D2E/DX2 =    0.0166             !
 ! A18   A(1,3,45)             113.2614         D2E/DX2 =    0.0153             !
 ! A19   A(43,3,44)            105.2578         D2E/DX2 =    0.0134             !
 ! A20   A(43,3,45)            105.6341         D2E/DX2 =    0.0131             !
 ! A21   A(44,3,45)            105.3279         D2E/DX2 =    0.0177             !
 ! A22   A(1,4,19)             109.963          D2E/DX2 =    0.0225             !
 ! A23   A(1,4,23)             109.0184         D2E/DX2 =    0.0171             !
 ! A24   A(1,4,27)             112.0957         D2E/DX2 =    0.0128             !
 ! A25   A(19,4,23)            108.3192         D2E/DX2 =    0.0251             !
 ! A26   A(19,4,27)            108.0629         D2E/DX2 =    0.0239             !
 ! A27   A(23,4,27)            109.3052         D2E/DX2 =    0.021              !
 ! A28   A(1,5,7)              116.3093         D2E/DX2 =    0.0112             !
 ! A29   A(1,5,11)             110.8581         D2E/DX2 =    0.0125             !
 ! A30   A(1,5,15)             104.0641         D2E/DX2 =    0.0171             !
 ! A31   A(7,5,11)             107.6396         D2E/DX2 =    0.024              !
 ! A32   A(7,5,15)             109.1893         D2E/DX2 =    0.0202             !
 ! A33   A(11,5,15)            108.5376         D2E/DX2 =    0.0186             !
 ! A34   A(1,6,14)             100.4968         D2E/DX2 =    0.0182             !
 ! A35   A(14,6,48)             81.8516         D2E/DX2 =    0.0113             !
 ! A36   A(5,7,8)              110.2771         D2E/DX2 =    0.0638             !
 ! A37   A(5,7,9)              110.1145         D2E/DX2 =    0.0646             !
 ! A38   A(5,7,10)             110.7207         D2E/DX2 =    0.0415             !
 ! A39   A(8,7,9)              107.9834         D2E/DX2 =    0.0281             !
 ! A40   A(8,7,10)             107.3186         D2E/DX2 =    0.0357             !
 ! A41   A(9,7,10)             110.35           D2E/DX2 =    0.0325             !
 ! A42   A(7,10,44)             99.5857         D2E/DX2 =    0.0123             !
 ! A43   A(5,11,12)            109.7602         D2E/DX2 =    0.0592             !
 ! A44   A(5,11,13)            109.665          D2E/DX2 =    0.0608             !
 ! A45   A(5,11,14)            109.7647         D2E/DX2 =    0.0364             !
 ! A46   A(12,11,13)           108.577          D2E/DX2 =    0.0277             !
 ! A47   A(12,11,14)           109.4119         D2E/DX2 =    0.0286             !
 ! A48   A(13,11,14)           109.6426         D2E/DX2 =    0.0323             !
 ! A49   A(6,14,11)            108.9016         D2E/DX2 =    0.0239             !
 ! A50   A(5,15,16)            110.6095         D2E/DX2 =    0.127              !
 ! A51   A(5,15,17)            110.0507         D2E/DX2 =    0.1234             !
 ! A52   A(5,15,18)            109.347          D2E/DX2 =    0.1227             !
 ! A53   A(16,15,17)           108.2156         D2E/DX2 =    0.0554             !
 ! A54   A(16,15,18)           108.6765         D2E/DX2 =    0.0543             !
 ! A55   A(17,15,18)           109.9182         D2E/DX2 =    0.0545             !
 ! A56   A(4,19,20)            109.5978         D2E/DX2 =    0.1259             !
 ! A57   A(4,19,21)            109.6846         D2E/DX2 =    0.1313             !
 ! A58   A(4,19,22)            109.8311         D2E/DX2 =    0.1261             !
 ! A59   A(20,19,21)           109.5845         D2E/DX2 =    0.0547             !
 ! A60   A(20,19,22)           109.0211         D2E/DX2 =    0.0541             !
 ! A61   A(21,19,22)           109.1054         D2E/DX2 =    0.055              !
 ! A62   A(4,23,24)            110.4776         D2E/DX2 =    0.1222             !
 ! A63   A(4,23,25)            110.5044         D2E/DX2 =    0.1263             !
 ! A64   A(4,23,26)            109.676          D2E/DX2 =    0.122              !
 ! A65   A(24,23,25)           108.0448         D2E/DX2 =    0.0553             !
 ! A66   A(24,23,26)           109.6418         D2E/DX2 =    0.0546             !
 ! A67   A(25,23,26)           108.4531         D2E/DX2 =    0.0545             !
 ! A68   A(4,27,28)            110.1916         D2E/DX2 =    0.0261             !
 ! A69   A(4,27,29)            110.4027         D2E/DX2 =    0.0391             !
 ! A70   A(4,27,30)            110.6933         D2E/DX2 =    0.0241             !
 ! A71   A(28,27,29)           108.1056         D2E/DX2 =    0.0191             !
 ! A72   A(28,27,30)           110.0704         D2E/DX2 =    0.0195             !
 ! A73   A(29,27,30)           107.3009         D2E/DX2 =    0.0213             !
 ! A74   A(27,28,36)           137.9018         D2E/DX2 =    0.0245             !
 ! A75   A(27,30,45)           113.4412         D2E/DX2 =    0.0126             !
 ! A76   A(2,31,32)            110.3985         D2E/DX2 =    0.1281             !
 ! A77   A(2,31,33)            109.6258         D2E/DX2 =    0.1247             !
 ! A78   A(2,31,34)            109.3343         D2E/DX2 =    0.1246             !
 ! A79   A(32,31,33)           108.2924         D2E/DX2 =    0.0547             !
 ! A80   A(32,31,34)           109.2627         D2E/DX2 =    0.0544             !
 ! A81   A(33,31,34)           109.9125         D2E/DX2 =    0.0544             !
 ! A82   A(2,35,36)            109.6908         D2E/DX2 =    0.0361             !
 ! A83   A(2,35,37)            110.0549         D2E/DX2 =    0.0645             !
 ! A84   A(2,35,38)            109.5394         D2E/DX2 =    0.0645             !
 ! A85   A(36,35,37)           108.3386         D2E/DX2 =    0.033              !
 ! A86   A(36,35,38)           109.5599         D2E/DX2 =    0.0301             !
 ! A87   A(37,35,38)           109.6386         D2E/DX2 =    0.0273             !
 ! A88   A(28,36,35)           135.3208         D2E/DX2 =    0.0285             !
 ! A89   A(2,39,40)            110.3493         D2E/DX2 =    0.1191             !
 ! A90   A(2,39,41)            110.2493         D2E/DX2 =    0.1282             !
 ! A91   A(2,39,42)            110.1713         D2E/DX2 =    0.1195             !
 ! A92   A(40,39,41)           107.8426         D2E/DX2 =    0.0544             !
 ! A93   A(40,39,42)           110.2163         D2E/DX2 =    0.055              !
 ! A94   A(41,39,42)           107.9524         D2E/DX2 =    0.0544             !
 ! A95   A(3,44,10)             99.9365         D2E/DX2 =    0.0155             !
 ! A96   A(3,45,30)            107.127          D2E/DX2 =    0.0154             !
 ! A97   A(47,46,48)           105.2137         D2E/DX2 =    0.0745             !
 ! A98   A(47,46,49)           113.367          D2E/DX2 =    0.0327             !
 ! A99   A(47,46,50)           113.4162         D2E/DX2 =    0.0332             !
 ! A100  A(48,46,49)           105.1117         D2E/DX2 =    0.0743             !
 ! A101  A(48,46,50)           105.2331         D2E/DX2 =    0.0744             !
 ! A102  A(49,46,50)           113.4019         D2E/DX2 =    0.0311             !
 ! A103  L(3,1,6,2,-1)         184.8327         D2E/DX2 =    0.006              !
 ! A104  L(1,6,48,14,-1)       182.3484         D2E/DX2 =    0.009              !
 ! A105  L(6,48,46,20,-1)      180.0827         D2E/DX2 =    0.0189             !
 ! A106  L(3,1,6,2,-2)         178.7423         D2E/DX2 =    0.0075             !
 ! A107  L(1,6,48,14,-2)       179.2303         D2E/DX2 =    0.0063             !
 ! A108  L(6,48,46,20,-2)      179.6071         D2E/DX2 =    0.0167             !
 ! D1    D(3,1,2,31)           110.5912         D2E/DX2 =    0.0091             !
 ! D2    D(3,1,2,35)          -132.559          D2E/DX2 =    0.0089             !
 ! D3    D(3,1,2,39)            -9.8571         D2E/DX2 =    0.0086             !
 ! D4    D(4,1,2,31)          -160.7454         D2E/DX2 =    0.0098             !
 ! D5    D(4,1,2,35)           -43.8956         D2E/DX2 =    0.0085             !
 ! D6    D(4,1,2,39)            78.8063         D2E/DX2 =    0.0084             !
 ! D7    D(5,1,2,31)            22.0893         D2E/DX2 =    0.0093             !
 ! D8    D(5,1,2,35)           138.939          D2E/DX2 =    0.0089             !
 ! D9    D(5,1,2,39)           -98.3591         D2E/DX2 =    0.0086             !
 ! D10   D(6,1,2,31)           -68.1511         D2E/DX2 =    0.0111             !
 ! D11   D(6,1,2,35)            48.6987         D2E/DX2 =    0.0109             !
 ! D12   D(6,1,2,39)           171.4006         D2E/DX2 =    0.0101             !
 ! D13   D(2,1,3,43)           174.6498         D2E/DX2 =    0.0052             !
 ! D14   D(2,1,3,44)           -65.5354         D2E/DX2 =    0.0048             !
 ! D15   D(2,1,3,45)            54.0685         D2E/DX2 =    0.0048             !
 ! D16   D(4,1,3,43)            61.4353         D2E/DX2 =    0.0047             !
 ! D17   D(4,1,3,44)          -178.75           D2E/DX2 =    0.0047             !
 ! D18   D(4,1,3,45)           -59.146          D2E/DX2 =    0.0043             !
 ! D19   D(5,1,3,43)           -66.7946         D2E/DX2 =    0.0043             !
 ! D20   D(5,1,3,44)            53.0202         D2E/DX2 =    0.0038             !
 ! D21   D(5,1,3,45)           172.6241         D2E/DX2 =    0.0043             !
 ! D22   D(2,1,46,47)           60.9176         D2E/DX2 =    0.004              !
 ! D23   D(2,1,46,49)          -58.9075         D2E/DX2 =    0.0041             !
 ! D24   D(2,1,46,50)         -178.5266         D2E/DX2 =    0.0041             !
 ! D25   D(4,1,46,47)          174.2172         D2E/DX2 =    0.0039             !
 ! D26   D(4,1,46,49)           54.3921         D2E/DX2 =    0.0038             !
 ! D27   D(4,1,46,50)          -65.2269         D2E/DX2 =    0.0039             !
 ! D28   D(5,1,46,47)          -57.7474         D2E/DX2 =    0.0036             !
 ! D29   D(5,1,46,49)         -177.5724         D2E/DX2 =    0.0034             !
 ! D30   D(5,1,46,50)           62.8085         D2E/DX2 =    0.0035             !
 ! D31   D(43,3,6,14)          -76.8361         D2E/DX2 =    0.0036             !
 ! D32   D(44,3,6,14)           41.7728         D2E/DX2 =    0.0032             !
 ! D33   D(45,3,6,14)          162.8931         D2E/DX2 =    0.0034             !
 ! D34   D(43,3,46,47)        -123.9743         D2E/DX2 =    0.0036             !
 ! D35   D(43,3,46,49)         115.4175         D2E/DX2 =    0.0037             !
 ! D36   D(43,3,46,50)          -3.8158         D2E/DX2 =    0.0039             !
 ! D37   D(44,3,46,47)          -5.4164         D2E/DX2 =    0.0035             !
 ! D38   D(44,3,46,49)        -126.0246         D2E/DX2 =    0.003              !
 ! D39   D(44,3,46,50)         114.7421         D2E/DX2 =    0.0031             !
 ! D40   D(45,3,46,47)         116.5701         D2E/DX2 =    0.0031             !
 ! D41   D(45,3,46,49)          -4.0381         D2E/DX2 =    0.0036             !
 ! D42   D(45,3,46,50)        -123.2713         D2E/DX2 =    0.0032             !
 ! D43   D(2,1,4,19)            74.1329         D2E/DX2 =    0.0109             !
 ! D44   D(2,1,4,23)          -167.2525         D2E/DX2 =    0.011              !
 ! D45   D(2,1,4,27)           -46.0986         D2E/DX2 =    0.0081             !
 ! D46   D(3,1,4,19)           165.8587         D2E/DX2 =    0.0104             !
 ! D47   D(3,1,4,23)           -75.5267         D2E/DX2 =    0.0111             !
 ! D48   D(3,1,4,27)            45.6272         D2E/DX2 =    0.0078             !
 ! D49   D(5,1,4,19)          -109.0266         D2E/DX2 =    0.0104             !
 ! D50   D(5,1,4,23)             9.588          D2E/DX2 =    0.0087             !
 ! D51   D(5,1,4,27)           130.7419         D2E/DX2 =    0.0077             !
 ! D52   D(6,1,4,19)           -19.0799         D2E/DX2 =    0.0098             !
 ! D53   D(6,1,4,23)            99.5347         D2E/DX2 =    0.0099             !
 ! D54   D(6,1,4,27)          -139.3114         D2E/DX2 =    0.0081             !
 ! D55   D(2,1,5,7)             65.3366         D2E/DX2 =    0.0094             !
 ! D56   D(2,1,5,11)           -58.0403         D2E/DX2 =    0.0099             !
 ! D57   D(2,1,5,15)          -174.5398         D2E/DX2 =    0.0116             !
 ! D58   D(3,1,5,7)            -26.1            D2E/DX2 =    0.0075             !
 ! D59   D(3,1,5,11)          -149.4769         D2E/DX2 =    0.0088             !
 ! D60   D(3,1,5,15)            94.0236         D2E/DX2 =    0.0114             !
 ! D61   D(4,1,5,7)           -111.357          D2E/DX2 =    0.0088             !
 ! D62   D(4,1,5,11)           125.2662         D2E/DX2 =    0.0097             !
 ! D63   D(4,1,5,15)             8.7666         D2E/DX2 =    0.0096             !
 ! D64   D(6,1,5,7)            157.5415         D2E/DX2 =    0.0099             !
 ! D65   D(6,1,5,11)            34.1647         D2E/DX2 =    0.0075             !
 ! D66   D(6,1,5,15)           -82.3349         D2E/DX2 =    0.0127             !
 ! D67   D(2,1,6,14)           107.8            D2E/DX2 =    0.005              !
 ! D68   D(4,1,6,14)          -138.8295         D2E/DX2 =    0.0048             !
 ! D69   D(5,1,6,14)           -10.806          D2E/DX2 =    0.0026             !
 ! D70   D(1,2,31,32)          177.8059         D2E/DX2 =    0.0124             !
 ! D71   D(1,2,31,33)          -62.9768         D2E/DX2 =    0.0124             !
 ! D72   D(1,2,31,34)           57.5751         D2E/DX2 =    0.0129             !
 ! D73   D(35,2,31,32)          61.0353         D2E/DX2 =    0.0136             !
 ! D74   D(35,2,31,33)        -179.7474         D2E/DX2 =    0.014              !
 ! D75   D(35,2,31,34)         -59.1955         D2E/DX2 =    0.0139             !
 ! D76   D(39,2,31,32)         -57.3923         D2E/DX2 =    0.014              !
 ! D77   D(39,2,31,33)          61.825          D2E/DX2 =    0.0143             !
 ! D78   D(39,2,31,34)        -177.6231         D2E/DX2 =    0.0145             !
 ! D79   D(1,2,35,36)           67.2052         D2E/DX2 =    0.0083             !
 ! D80   D(1,2,35,37)         -173.6915         D2E/DX2 =    0.0123             !
 ! D81   D(1,2,35,38)          -53.0811         D2E/DX2 =    0.012              !
 ! D82   D(31,2,35,36)        -178.3918         D2E/DX2 =    0.0154             !
 ! D83   D(31,2,35,37)         -59.2885         D2E/DX2 =    0.0145             !
 ! D84   D(31,2,35,38)          61.322          D2E/DX2 =    0.0146             !
 ! D85   D(39,2,35,36)         -59.7069         D2E/DX2 =    0.0137             !
 ! D86   D(39,2,35,37)          59.3964         D2E/DX2 =    0.014              !
 ! D87   D(39,2,35,38)        -179.9931         D2E/DX2 =    0.0148             !
 ! D88   D(1,2,39,40)           61.3884         D2E/DX2 =    0.0109             !
 ! D89   D(1,2,39,41)         -179.5893         D2E/DX2 =    0.0108             !
 ! D90   D(1,2,39,42)          -60.5428         D2E/DX2 =    0.0108             !
 ! D91   D(31,2,39,40)         -57.0101         D2E/DX2 =    0.013              !
 ! D92   D(31,2,39,41)          62.0122         D2E/DX2 =    0.0132             !
 ! D93   D(31,2,39,42)        -178.9413         D2E/DX2 =    0.0135             !
 ! D94   D(35,2,39,40)        -175.7272         D2E/DX2 =    0.0127             !
 ! D95   D(35,2,39,41)         -56.7049         D2E/DX2 =    0.0127             !
 ! D96   D(35,2,39,42)          62.3416         D2E/DX2 =    0.0128             !
 ! D97   D(1,3,44,10)          -72.9243         D2E/DX2 =    0.0083             !
 ! D98   D(43,3,44,10)          51.6235         D2E/DX2 =    0.012              !
 ! D99   D(45,3,44,10)         162.9946         D2E/DX2 =    0.0118             !
 ! D100  D(1,3,45,30)           64.6293         D2E/DX2 =    0.0062             !
 ! D101  D(43,3,45,30)         -60.4109         D2E/DX2 =    0.011              !
 ! D102  D(44,3,45,30)        -171.5145         D2E/DX2 =    0.0115             !
 ! D103  D(1,4,19,20)           59.3978         D2E/DX2 =    0.0108             !
 ! D104  D(1,4,19,21)          179.7468         D2E/DX2 =    0.0113             !
 ! D105  D(1,4,19,22)          -60.3489         D2E/DX2 =    0.0102             !
 ! D106  D(23,4,19,20)         -59.6459         D2E/DX2 =    0.0132             !
 ! D107  D(23,4,19,21)          60.7031         D2E/DX2 =    0.0134             !
 ! D108  D(23,4,19,22)        -179.3927         D2E/DX2 =    0.0132             !
 ! D109  D(27,4,19,20)        -177.9586         D2E/DX2 =    0.0122             !
 ! D110  D(27,4,19,21)         -57.6096         D2E/DX2 =    0.0125             !
 ! D111  D(27,4,19,22)          62.2947         D2E/DX2 =    0.0117             !
 ! D112  D(1,4,23,24)           60.0557         D2E/DX2 =    0.0113             !
 ! D113  D(1,4,23,25)          179.5723         D2E/DX2 =    0.0117             !
 ! D114  D(1,4,23,26)          -60.9149         D2E/DX2 =    0.0121             !
 ! D115  D(19,4,23,24)         179.6942         D2E/DX2 =    0.0152             !
 ! D116  D(19,4,23,25)         -60.7891         D2E/DX2 =    0.0152             !
 ! D117  D(19,4,23,26)          58.7237         D2E/DX2 =    0.0153             !
 ! D118  D(27,4,23,24)         -62.786          D2E/DX2 =    0.0123             !
 ! D119  D(27,4,23,25)          56.7306         D2E/DX2 =    0.0126             !
 ! D120  D(27,4,23,26)         176.2434         D2E/DX2 =    0.013              !
 ! D121  D(1,4,27,28)           50.8625         D2E/DX2 =    0.008              !
 ! D122  D(1,4,27,29)          170.2077         D2E/DX2 =    0.0102             !
 ! D123  D(1,4,27,30)          -71.128          D2E/DX2 =    0.0069             !
 ! D124  D(19,4,27,28)         -70.4682         D2E/DX2 =    0.0159             !
 ! D125  D(19,4,27,29)          48.877          D2E/DX2 =    0.0145             !
 ! D126  D(19,4,27,30)         167.5413         D2E/DX2 =    0.0152             !
 ! D127  D(23,4,27,28)         171.851          D2E/DX2 =    0.0146             !
 ! D128  D(23,4,27,29)         -68.8038         D2E/DX2 =    0.0133             !
 ! D129  D(23,4,27,30)          49.8605         D2E/DX2 =    0.0121             !
 ! D130  D(1,5,7,8)           -175.323          D2E/DX2 =    0.0099             !
 ! D131  D(1,5,7,9)            -56.2565         D2E/DX2 =    0.0102             !
 ! D132  D(1,5,7,10)            66.0531         D2E/DX2 =    0.0067             !
 ! D133  D(11,5,7,8)           -50.2923         D2E/DX2 =    0.0115             !
 ! D134  D(11,5,7,9)            68.7742         D2E/DX2 =    0.0114             !
 ! D135  D(11,5,7,10)         -168.9162         D2E/DX2 =    0.009              !
 ! D136  D(15,5,7,8)            67.3471         D2E/DX2 =    0.013              !
 ! D137  D(15,5,7,9)          -173.5864         D2E/DX2 =    0.0136             !
 ! D138  D(15,5,7,10)          -51.2768         D2E/DX2 =    0.0107             !
 ! D139  D(1,5,11,12)           68.1243         D2E/DX2 =    0.0101             !
 ! D140  D(1,5,11,13)         -172.6759         D2E/DX2 =    0.0105             !
 ! D141  D(1,5,11,14)          -52.1633         D2E/DX2 =    0.0063             !
 ! D142  D(7,5,11,12)          -60.1085         D2E/DX2 =    0.0113             !
 ! D143  D(7,5,11,13)           59.0912         D2E/DX2 =    0.0119             !
 ! D144  D(7,5,11,14)          179.6038         D2E/DX2 =    0.009              !
 ! D145  D(15,5,11,12)        -178.1694         D2E/DX2 =    0.0143             !
 ! D146  D(15,5,11,13)         -58.9696         D2E/DX2 =    0.0137             !
 ! D147  D(15,5,11,14)          61.543          D2E/DX2 =    0.012              !
 ! D148  D(1,5,15,16)          177.9429         D2E/DX2 =    0.0104             !
 ! D149  D(1,5,15,17)          -62.5343         D2E/DX2 =    0.011              !
 ! D150  D(1,5,15,18)           58.297          D2E/DX2 =    0.0109             !
 ! D151  D(7,5,15,16)          -57.2384         D2E/DX2 =    0.0127             !
 ! D152  D(7,5,15,17)           62.2843         D2E/DX2 =    0.0133             !
 ! D153  D(7,5,15,18)         -176.8844         D2E/DX2 =    0.0133             !
 ! D154  D(11,5,15,16)          59.834          D2E/DX2 =    0.0134             !
 ! D155  D(11,5,15,17)         179.3568         D2E/DX2 =    0.014              !
 ! D156  D(11,5,15,18)         -59.8119         D2E/DX2 =    0.0137             !
 ! D157  D(1,6,14,11)          -14.3979         D2E/DX2 =    0.0085             !
 ! D158  D(48,6,14,11)         166.3717         D2E/DX2 =    0.0057             !
 ! D159  D(14,6,46,47)         -46.6927         D2E/DX2 =    0.003              !
 ! D160  D(14,6,46,49)        -166.5502         D2E/DX2 =    0.0039             !
 ! D161  D(14,6,46,50)          73.4344         D2E/DX2 =    0.0033             !
 ! D162  D(5,7,10,44)          -81.8722         D2E/DX2 =    0.0143             !
 ! D163  D(8,7,10,44)          157.7247         D2E/DX2 =    0.0306             !
 ! D164  D(9,7,10,44)           40.2997         D2E/DX2 =    0.0279             !
 ! D165  D(7,10,44,3)          101.1284         D2E/DX2 =    0.0234             !
 ! D166  D(5,11,14,6)           40.2127         D2E/DX2 =    0.0077             !
 ! D167  D(12,11,14,6)         -80.2863         D2E/DX2 =    0.0315             !
 ! D168  D(13,11,14,6)         160.7389         D2E/DX2 =    0.0332             !
 ! D169  D(4,27,28,36)           8.3906         D2E/DX2 =    0.0086             !
 ! D170  D(29,27,28,36)       -112.3423         D2E/DX2 =    0.0204             !
 ! D171  D(30,27,28,36)        130.749          D2E/DX2 =    0.0136             !
 ! D172  D(4,27,30,45)          72.4304         D2E/DX2 =    0.0122             !
 ! D173  D(28,27,30,45)        -49.6312         D2E/DX2 =    0.0128             !
 ! D174  D(29,27,30,45)       -167.0405         D2E/DX2 =    0.0215             !
 ! D175  D(27,28,36,35)        -60.7445         D2E/DX2 =    0.0112             !
 ! D176  D(27,30,45,3)         -79.4522         D2E/DX2 =    0.013              !
 ! D177  D(2,35,36,28)         -20.1415         D2E/DX2 =    0.0121             !
 ! D178  D(37,35,36,28)       -140.2956         D2E/DX2 =    0.0296             !
 ! D179  D(38,35,36,28)        100.1323         D2E/DX2 =    0.0272             !
 --------------------------------------------------------------------------------
 Trust Radius=3.00D-01 FncErr=1.00D-07 GrdErr=1.00D-06 EigMax=2.50D+02 EigMin=1.00D-04
 Number of steps in this run=    300 maximum allowed number of steps=    300.
 Search for a saddle point of order  1.
 GradGradGradGradGradGradGradGradGradGradGradGradGradGradGradGradGradGrad

 Leave Link  103 at Sat Nov 17 22:37:44 2018, MaxMem=  4026531840 cpu:               0.5 elap:               0.1
 (Enter /share/apps/g16_avx/g16/l202.exe)
                          Input orientation:                          
 ---------------------------------------------------------------------
 Center     Atomic      Atomic             Coordinates (Angstroms)
 Number     Number       Type             X           Y           Z
 ---------------------------------------------------------------------
      1         26           0       -0.023643   -0.013665   -0.198154
      2          7           0        0.441833    2.096057   -0.066988
      3          7           0       -0.024722    0.027391   -2.432211
      4          7           0        1.766580   -1.295651   -0.307062
      5          7           0       -2.150503   -0.626747   -0.304631
      6          8           0       -0.089447   -0.175093    1.477275
      7          6           0       -2.893854   -0.210945   -1.516893
      8          1           0       -3.948924   -0.491368   -1.429968
      9          1           0       -2.841822    0.874517   -1.635959
     10          1           0       -2.497483   -0.708985   -2.402299
     11          6           0       -2.904468   -0.131497    0.878590
     12          1           0       -2.980290    0.955251    0.838846
     13          1           0       -3.915504   -0.552157    0.873810
     14          1           0       -2.391007   -0.424714    1.790733
     15          6           0       -2.101951   -2.108192   -0.246648
     16          1           0       -3.114021   -2.527892   -0.255656
     17          1           0       -1.562045   -2.499605   -1.112605
     18          1           0       -1.603344   -2.417881    0.673497
     19          6           0        2.421255   -1.368624    1.027532
     20          1           0        1.722861   -1.776732    1.754645
     21          1           0        3.306946   -2.009828    0.969320
     22          1           0        2.723333   -0.371130    1.346210
     23          6           0        1.356994   -2.664908   -0.700611
     24          1           0        0.865962   -2.651334   -1.676419
     25          1           0        2.231025   -3.322035   -0.769595
     26          1           0        0.675914   -3.073618    0.046897
     27          6           0        2.761138   -0.783093   -1.279478
     28          1           0        2.965293    0.273100   -1.088808
     29          1           0        3.703344   -1.333754   -1.188074
     30          1           0        2.405241   -0.916845   -2.301267
     31          6           0       -0.787929    2.735324    0.465466
     32          1           0       -0.630379    3.810470    0.603079
     33          1           0       -1.609929    2.596701   -0.242365
     34          1           0       -1.043348    2.283707    1.424100
     35          6           0        1.548203    2.286418    0.906431
     36          1           0        2.465471    1.844641    0.511867
     37          1           0        1.723565    3.354778    1.071455
     38          1           0        1.289686    1.808119    1.849569
     39          6           0        0.814678    2.753474   -1.340315
     40          1           0       -0.010022    2.696342   -2.052551
     41          1           0        1.037655    3.811994   -1.169303
     42          1           0        1.707972    2.284599   -1.758804
     43          1           0       -0.139986   -0.891509   -2.858471
     44          1           0       -0.775226    0.597796   -2.817855
     45          1           0        0.832893    0.407751   -2.827807
     46          6           0       -0.078086   -0.436312    4.013654
     47          1           0       -0.866484    0.224944    4.371893
     48          1           0       -0.085471   -0.315560    2.805082
     49          1           0        0.919881   -0.126924    4.324041
     50          1           0       -0.280859   -1.491022    4.197233
 ---------------------------------------------------------------------
                    Distance matrix (angstroms):
                    1          2          3          4          5
     1  Fe   0.000000
     2  N    2.164440   0.000000
     3  N    2.234434   3.176686   0.000000
     4  N    2.204597   3.649147   3.078224   0.000000
     5  N    2.216019   3.767007   3.077895   3.973786   0.000000
     6  O    1.684474   2.797343   3.915261   2.807908   2.761726
     7  C    3.164823   4.307121   3.021015   4.935577   1.481567
     8  H    4.141666   5.275531   4.083254   5.880032   2.125801
     9  H    3.286074   3.838778   3.047572   5.264311   2.122298
    10  H    3.385500   4.686312   2.580250   4.787111   2.127762
    11  C    3.077729   4.129630   4.390853   4.957793   1.487867
    12  H    3.279623   3.719261   4.505122   5.377029   2.121038
    13  H    4.072550   5.185029   5.138466   5.850925   2.123562
    14  H    3.119142   4.222605   4.861786   4.737595   2.118776
    15  C    2.951061   4.917197   3.694899   3.953404   1.483374
    16  H    3.984354   5.836146   4.561867   5.034017   2.131928
    17  H    3.063135   5.121421   3.238893   3.630172   2.122899
    18  H    3.005908   5.010659   4.256386   3.684737   2.112884
    19  C    3.052171   4.137644   4.461108   1.488310   4.819337
    20  H    3.157864   4.467424   4.882486   2.117542   4.534979
    21  H    4.054687   5.112837   5.178869   2.124130   5.772314
    22  H    3.171548   3.645461   4.689039   2.122127   5.152174
    23  C    3.031124   4.889354   3.486553   1.482399   4.075958
    24  H    3.151819   5.030693   2.922346   2.127000   3.883274
    25  H    4.044179   5.748964   4.367075   2.129760   5.165129
    26  H    3.148451   5.176225   4.031516   2.115657   3.754914
    27  C    3.084848   3.890863   3.121970   1.482381   5.009889
    28  H    3.131970   3.276452   3.287141   2.123445   5.253192
    29  H    4.075906   4.863938   4.159215   2.128072   5.962202
    30  H    3.337409   4.233740   2.610258   2.127965   4.982521
    31  C    2.929414   1.484751   4.038802   4.834364   3.708528
    32  H    3.953999   2.130221   4.887892   5.713689   4.777406
    33  H    3.054876   2.119228   3.729566   5.153193   3.269054
    34  H    2.991559   2.112893   4.582542   4.868719   3.561607
    35  C    2.996863   1.485879   4.327104   3.788334   4.861443
    36  H    3.186396   2.119763   4.262752   3.319718   5.299212
    37  H    4.001381   2.126798   5.138452   4.850634   5.723160
    38  H    3.039227   2.115409   4.819990   3.809445   4.733292
    39  C    3.108757   1.480734   3.054236   4.285924   4.614199
    40  H    3.283765   2.122964   2.695859   4.705216   4.322014
    41  H    4.087193   2.124745   4.128777   5.230949   5.533031
    42  H    3.273551   2.121532   2.924157   3.863830   5.047612
    43  H    2.803825   4.129944   1.019490   3.210609   3.261039
    44  H    2.793134   3.360549   1.018499   4.043513   3.115636
    45  H    2.797556   3.259667   1.018172   3.182374   4.041937
    46  C    4.233311   4.830616   6.462743   4.775965   4.793617
    47  H    4.653240   4.991635   6.858821   5.580130   4.923815
    48  H    3.019005   3.787180   5.248861   3.751814   3.745866
    49  H    4.620964   4.944827   6.823711   4.850767   5.576889
    50  H    4.644154   5.618986   6.805932   4.951651   4.950689
                    6          7          8          9         10
     6  O    0.000000
     7  C    4.102563   0.000000
     8  H    4.842278   1.095156   0.000000
     9  H    4.285963   1.093212   1.770240   0.000000
    10  H    4.597257   1.090458   1.760530   1.792575   0.000000
    11  C    2.878310   2.396824   2.559265   2.709049   3.356093
    12  H    3.168950   2.630017   2.859803   2.479990   3.675297
    13  H    3.891665   2.622147   2.304822   3.080119   3.573271
    14  H    2.336182   3.352453   3.578332   3.692351   4.204006
    15  C    3.280085   2.416646   2.725009   3.372558   2.600203
    16  H    4.205563   2.647156   2.494695   3.681809   2.880385
    17  H    3.778807   2.678643   3.135431   3.646427   2.396805
    18  H    2.822772   3.366570   3.692934   4.208004   3.630473
    19  C    2.816098   6.005389   6.883899   6.310772   6.032648
    20  H    2.434470   5.871006   6.630465   6.273886   6.019267
    21  H    3.893553   6.918609   7.791659   7.274220   6.837500
    22  H    2.822648   6.306806   7.227768   6.435520   6.436022
    23  C    3.610340   4.975737   5.780052   5.570679   4.645252
    24  H    4.121937   4.485216   5.282927   5.116730   3.951251
    25  H    4.509574   6.041665   6.829388   6.640438   5.643806
    26  H    3.321627   4.835657   5.498934   5.549256   4.654084
    27  C    4.011881   5.688818   6.718086   5.853880   5.377668
    28  H    4.014610   5.894672   6.964711   5.863758   5.703654
    29  H    4.778268   6.700138   7.702294   6.922157   6.349404
    30  H    4.588142   5.403142   6.427722   5.584199   4.908168
    31  C    3.159456   4.128579   4.898581   3.478084   4.796865
    32  H    4.116010   5.078324   5.801020   4.303904   5.739673
    33  H    3.598871   3.340024   4.051848   2.534873   4.047299
    34  H    2.637888   4.277511   4.928399   3.818938   5.070704
    35  C    3.011112   5.642800   6.587356   5.265884   6.023928
    36  H    3.396902   6.087994   7.097332   5.807035   6.296371
    37  H    3.988946   6.382357   7.295690   5.858715   6.811636
    38  H    2.444124   5.736871   6.594394   5.485424   6.225499
    39  C    4.163263   4.751018   5.764455   4.121635   4.907835
    40  H    4.550947   4.129859   5.105297   3.392888   4.231553
    41  H    4.916462   5.635745   6.591877   4.888444   5.869986
    42  H    4.444436   5.240521   6.309881   4.764876   5.202065
    43  H    4.394826   3.137959   4.087633   3.451565   2.408153
    44  H    4.417668   2.614412   3.631097   2.396721   2.201484
    45  H    4.441188   3.998740   5.062425   3.891260   3.538299
    46  C    2.549820   6.210176   6.679778   6.424534   6.862382
    47  H    3.023678   6.243239   6.608792   6.357530   7.030082
    48  H    1.335222   5.155330   5.735227   5.360653   5.752339
    49  H    3.020785   6.976256   7.546304   7.118630   7.567088
    50  H    3.027619   6.412299   6.791127   6.795619   7.005628
                   11         12         13         14         15
    11  C    0.000000
    12  H    1.090115   0.000000
    13  H    1.095067   1.774296   0.000000
    14  H    1.087025   1.776977   1.783558   0.000000
    15  C    2.411953   3.366669   2.639251   2.658679   0.000000
    16  H    2.659537   3.653506   2.412799   3.022220   1.095680
    17  H    3.372668   4.213741   3.643785   3.663567   1.092970
    18  H    2.638662   3.647100   2.977774   2.416887   1.091413
    19  C    5.469551   5.883255   6.390991   4.962994   4.757088
    20  H    4.988631   5.515619   5.836661   4.330492   4.329460
    21  H    6.489840   6.952557   7.368698   5.971095   5.544765
    22  H    5.652277   5.877756   6.658085   5.133902   5.370097
    23  C    5.203086   5.855554   5.894214   5.027204   3.532749
    24  H    5.205170   5.841889   5.811422   5.252316   3.338826
    25  H    6.266525   6.931094   6.939224   6.026021   4.530074
    26  H    4.708176   5.497890   5.303081   4.411764   2.955461
    27  C    6.097616   6.361850   7.019083   6.008263   5.145120
    28  H    6.203906   6.287379   7.202658   6.121164   5.661868
    29  H    7.027069   7.349756   7.931526   6.844031   5.931904
    30  H    6.238692   6.509147   7.082791   6.323816   5.094659
    31  C    3.587349   2.848600   4.555875   3.783125   5.068866
    32  H    4.559220   3.705394   5.467893   4.737839   6.157769
    33  H    3.221092   2.396094   4.059166   3.724583   4.730552
    34  H    3.097509   2.420550   4.073601   3.047318   4.816723
    35  C    5.066889   4.720574   6.157164   4.863086   5.828020
    36  H    5.733747   5.527589   6.825869   5.510975   6.087822
    37  H    5.797413   5.285649   6.863112   5.633083   6.798236
    38  H    4.721847   4.470083   5.798018   4.305404   5.588812
    39  C    5.203714   4.731187   6.180952   5.493702   5.773961
    40  H    4.996607   4.496006   5.862519   5.493716   5.542653
    41  H    5.940145   5.323300   6.910420   6.202196   6.764394
    42  H    5.836777   5.522205   6.826516   6.061454   6.008223
    43  H    4.710160   5.014778   5.319738   5.186530   3.485863
    44  H    4.327730   4.285037   4.981177   4.989525   3.961524
    45  H    5.291128   5.318314   6.096775   5.693632   4.648189
    46  C    4.232018   4.520912   4.959619   3.207977   5.004137
    47  H    4.059999   4.181381   4.704997   3.067346   5.319852
    48  H    3.419356   3.723039   4.295922   2.521173   4.073423
    49  H    5.147504   5.341256   5.955322   4.179510   5.826499
    50  H    4.443537   4.954790   5.013706   3.373571   4.842040
                   16         17         18         19         20
    16  H    0.000000
    17  H    1.773074   0.000000
    18  H    1.776956   1.788448   0.000000
    19  C    5.799117   4.661114   4.174168   0.000000
    20  H    5.291595   4.419760   3.555783   1.087658   0.000000
    21  H    6.557269   5.318023   4.936088   1.094979   1.783366
    22  H    6.425908   5.379651   4.833411   1.089863   1.772986
    23  C    4.495190   2.952601   3.273041   2.408211   2.636474
    24  H    4.227774   2.497224   3.416735   3.372778   3.642994
    25  H    5.428104   3.896335   4.195521   2.661140   3.002995
    26  H    3.840959   2.585033   2.453087   2.629613   2.386297
    27  C    6.213697   4.654479   5.053251   2.404301   3.357267
    28  H    6.745203   5.308978   5.587445   2.733154   3.718961
    29  H    6.983683   5.393443   5.727278   2.560054   3.574652
    30  H    6.102643   4.433667   5.212589   3.359355   4.201841
    31  C    5.799324   5.522141   5.221465   5.239959   5.322095
    32  H    6.861540   6.605196   6.304282   6.026246   6.170954
    33  H    5.340779   5.170295   5.097537   5.795419   5.849996
    34  H    5.500977   5.439117   4.793947   5.049778   4.924260
    35  C    6.801791   6.054434   5.667181   3.759816   4.154415
    36  H    7.130138   6.142660   5.894953   3.254679   3.900040
    37  H    7.731059   7.059685   6.674600   4.774854   5.176789
    38  H    6.528828   5.955110   5.254697   3.471007   3.612175
    39  C    6.671131   5.770226   6.053526   5.017916   5.561146
    40  H    6.336897   5.503648   6.010432   5.649953   6.124216
    41  H    7.633172   6.826268   7.012997   5.794759   6.344512
    42  H    6.976470   5.830883   6.244535   4.649568   5.370191
    43  H    4.277532   2.766997   4.116555   4.678527   5.053183
    44  H    4.669556   3.622272   4.687177   5.373202   5.725957
    45  H    5.550864   4.138884   5.116500   4.532333   5.153918
    46  C    5.640799   5.721699   4.172490   4.004102   3.184848
    47  H    5.834701   6.163334   4.604956   4.953124   4.190633
    48  H    4.840934   4.722139   3.356687   3.248431   2.551177
    49  H    6.558250   6.430139   4.994159   3.829219   3.157284
    50  H    5.378673   5.554553   3.876177   4.166942   3.172185
                   21         22         23         24         25
    21  H    0.000000
    22  H    1.779882   0.000000
    23  C    2.649549   3.364190   0.000000
    24  H    3.656483   4.217279   1.092473   0.000000
    25  H    2.429675   3.664265   1.095676   1.770753   0.000000
    26  H    2.984098   3.630920   1.090725   1.784450   1.773905
    27  C    2.619137   2.658078   2.418250   2.690647   2.643336
    28  H    3.092633   2.530393   3.371826   3.647573   3.683211
    29  H    2.295334   2.882648   2.741341   3.166265   2.509205
    30  H    3.564326   3.701767   2.591649   2.401722   2.856801
    31  C    6.287952   4.770192   5.926461   6.028193   6.879757
    32  H    7.036514   5.411599   6.897810   7.013562   7.806695
    33  H    6.845725   5.487144   6.057817   5.977325   7.075474
    34  H    6.129137   4.608917   5.896171   6.132969   6.852602
    35  C    4.642721   2.938860   5.209105   5.614086   5.893221
    36  H    3.971684   2.381651   4.799464   5.249840   5.328382
    37  H    5.594330   3.867482   6.285794   6.660306   6.944553
    38  H    4.406915   2.656660   5.149361   5.700777   5.836490
    39  C    5.851056   4.541314   5.482900   5.415491   6.264469
    40  H    6.502462   5.332184   5.695566   5.431985   6.548979
    41  H    6.604317   5.164092   6.501685   6.485465   7.244189
    42  H    5.333056   4.210103   5.073517   5.007914   5.717208
    43  H    5.271049   5.113583   3.168951   2.346521   3.986546
    44  H    6.148701   5.524325   4.435575   3.814868   5.347709
    45  H    5.136516   4.647885   3.773709   3.268760   4.483560
    46  C    4.816883   3.868779   5.408363   6.178550   6.044738
    47  H    5.830028   4.732531   6.247031   6.917834   6.972125
    48  H    4.212963   3.165561   4.459823   5.142462   5.213767
    49  H    4.527423   3.489922   5.646199   6.510075   6.154101
    50  H    4.853960   4.290415   5.296173   6.096008   5.859313
                   26         27         28         29         30
    26  H    0.000000
    27  C    3.369560   0.000000
    28  H    4.210891   1.092510   0.000000
    29  H    3.703730   1.095141   1.771032   0.000000
    30  H    3.627136   1.090232   1.788766   1.760137   0.000000
    31  C    6.005151   5.293389   4.750262   6.281968   5.584755
    32  H    7.028969   6.012257   5.320181   6.960778   6.324375
    33  H    6.120561   5.621818   5.200793   6.676355   5.718887
    34  H    5.792537   5.584685   5.140666   6.514642   6.001221
    35  C    5.498152   3.958700   3.169002   4.705022   4.613538
    36  H    5.254330   3.193951   2.298200   3.811079   3.942481
    37  H    6.593297   4.870875   3.962999   5.568422   5.485134
    38  H    5.240009   4.320936   3.714566   4.992433   5.089139
    39  C    5.991545   4.037290   3.292515   5.007295   4.113947
    40  H    6.178238   4.514802   3.956438   5.547800   4.353214
    41  H    7.001546   4.908906   4.030637   5.795254   5.051094
    42  H    5.747712   3.278665   2.464930   4.171297   3.321098
    43  H    3.724038   3.304768   3.759093   4.213905   2.605628
    44  H    4.877693   4.096258   4.133584   5.142437   3.560389
    45  H    4.517576   2.744733   2.754883   3.736449   2.122281
    46  C    4.822765   6.016535   5.983355   6.493273   6.802650
    47  H    5.653768   6.790712   6.671139   7.363837   7.519237
    48  H    3.974189   5.000540   4.981572   5.597958   5.713142
    49  H    5.199662   5.934662   5.800230   6.291861   6.835567
    50  H    4.543711   6.304702   6.449175   6.700757   7.055162
                   31         32         33         34         35
    31  C    0.000000
    32  H    1.095307   0.000000
    33  H    1.093584   1.774128   0.000000
    34  H    1.090035   1.782028   1.787760   0.000000
    35  C    2.419397   2.676000   3.374879   2.642750   0.000000
    36  H    3.373438   3.668391   4.212285   3.651953   1.091892
    37  H    2.656793   2.442966   3.662374   2.987869   1.095161
    38  H    2.663069   3.041348   3.661395   2.418730   1.088628
    39  C    2.414441   2.642387   2.666232   3.363768   2.409163
    40  H    2.635729   2.945928   2.417934   3.650361   3.369225
    41  H    2.676648   2.433861   3.057099   3.659505   2.626159
    42  H    3.373433   3.657138   3.661347   4.207213   2.670020
    43  H    4.962087   5.859302   4.601342   5.407261   5.208041
    44  H    3.917829   4.695215   3.365338   4.572567   4.703198
    45  H    4.346298   5.048826   4.176529   5.011806   4.240942
    46  C    4.811735   5.474688   5.446045   3.877631   4.439922
    47  H    4.644174   5.207274   5.241118   3.599899   4.699980
    48  H    3.908343   4.708489   4.482429   3.095291   3.611656
    49  H    5.098792   5.634886   5.888135   4.251478   4.230729
    50  H    5.660848   6.414509   6.179477   4.745549   5.333282
                   36         37         38         39         40
    36  H    0.000000
    37  H    1.773155   0.000000
    38  H    1.781362   1.784900   0.000000
    39  C    2.642286   2.646559   3.360757   0.000000
    40  H    3.664655   3.632943   4.207698   1.091180   0.000000
    41  H    2.955583   2.387575   3.632165   1.095184   1.767041
    42  H    2.433786   3.025870   3.663653   1.092223   1.790900
    43  H    5.063013   6.078494   5.612272   4.062275   3.679548
    44  H    4.810799   5.382531   5.245340   3.059063   2.361170
    45  H    3.985397   4.968149   4.903829   2.777657   2.559136
    46  C    4.892335   5.125899   3.404634   6.295772   6.827664
    47  H    5.350247   5.234224   3.676633   6.469087   6.936484
    48  H    4.053715   4.444036   2.704455   5.235795   5.716104
    49  H    4.561643   4.831922   3.162935   6.355524   7.035373
    50  H    5.678987   6.104915   4.343094   7.062605   7.527760
                   41         42         43         44         45
    41  H    0.000000
    42  H    1.769116   0.000000
    43  H    5.134498   3.835607   0.000000
    44  H    4.041699   3.183263   1.619632   0.000000
    45  H    3.792286   2.330470   1.623426   1.619340   0.000000
    46  C    6.793823   6.626812   6.887462   6.944415   6.953266
    47  H    6.870046   6.960995   7.352036   7.199988   7.399796
    48  H    5.838994   5.550344   5.693024   5.738240   5.752913
    49  H    6.760605   6.590716   7.300437   7.375994   7.172334
    50  H    7.658993   7.327014   7.082529   7.336145   7.361859
                   46         47         48         49         50
    46  C    0.000000
    47  H    1.089572   0.000000
    48  H    1.214612   1.832218   0.000000
    49  H    1.089954   1.821318   1.831271   0.000000
    50  H    1.089601   1.821538   1.832477   1.821708   0.000000
 Stoichiometry    C10H34FeN4O(2+,5)
 Framework group  C1[X(C10H34FeN4O)]
 Deg. of freedom   144
 Full point group                 C1      NOp   1
 Largest Abelian subgroup         C1      NOp   1
 Largest concise Abelian subgroup C1      NOp   1
                         Standard orientation:                         
 ---------------------------------------------------------------------
 Center     Atomic      Atomic             Coordinates (Angstroms)
 Number     Number       Type             X           Y           Z
 ---------------------------------------------------------------------
      1         26           0       -0.023601   -0.013878   -0.198150
      2          7           0        0.442456    2.095842   -0.069029
      3          7           0       -0.024241    0.024918   -2.432247
      4          7           0        1.766274   -1.296487   -0.305417
      5          7           0       -2.150617   -0.626457   -0.304414
      6          8           0       -0.089772   -0.173592    1.477429
      7          6           0       -2.893617   -0.211668   -1.517238
      8          1           0       -3.948784   -0.491700   -1.430232
      9          1           0       -2.841250    0.873658   -1.637393
     10          1           0       -2.497219   -0.710718   -2.402064
     11          6           0       -2.904666   -0.129793    0.878161
     12          1           0       -2.980168    0.956935    0.837303
     13          1           0       -3.915822   -0.550168    0.873613
     14          1           0       -2.391464   -0.422235    1.790699
     15          6           0       -2.102502   -2.107856   -0.244923
     16          1           0       -3.114690   -2.527275   -0.253700
     17          1           0       -1.562542   -2.500300   -1.110380
     18          1           0       -1.604160   -2.416757    0.675631
     19          6           0        2.420673   -1.368298    1.029375
     20          1           0        1.722023   -1.775469    1.756767
     21          1           0        3.306191   -2.009815    0.971982
     22          1           0        2.722976   -0.370569    1.347102
     23          6           0        1.356370   -2.666024   -0.697659
     24          1           0        0.865529   -2.653297   -1.673575
     25          1           0        2.230226   -3.323472   -0.765811
     26          1           0        0.675030   -3.073782    0.050131
     27          6           0        2.761165   -0.785199   -1.278161
     28          1           0        2.965587    0.271128   -1.088521
     29          1           0        3.703196   -1.336038   -1.186019
     30          1           0        2.405425   -0.919883   -2.299882
     31          6           0       -0.787225    2.736000    0.462542
     32          1           0       -0.629392    3.811240    0.599097
     33          1           0       -1.609129    2.596897   -0.245306
     34          1           0       -1.042957    2.285427    1.421584
     35          6           0        1.548694    2.286870    0.904409
     36          1           0        2.465910    1.844431    0.510468
     37          1           0        1.724331    3.355346    1.068385
     38          1           0        1.289859    1.809600    1.847981
     39          6           0        0.815733    2.751863   -1.342949
     40          1           0       -0.008847    2.694247   -2.055285
     41          1           0        1.038981    3.810492   -1.172966
     42          1           0        1.708972    2.282309   -1.760792
     43          1           0       -0.139687   -0.894380   -2.857599
     44          1           0       -0.774507    0.595148   -2.818612
     45          1           0        0.833559    0.404631   -2.828064
     46          6           0       -0.078972   -0.432247    4.014073
     47          1           0       -0.867248    0.229597    4.371492
     48          1           0       -0.086091   -0.312716    2.805378
     49          1           0        0.919025   -0.122832    4.324338
     50          1           0       -0.282083   -1.486713    4.198681
 ---------------------------------------------------------------------
 Rotational constants (GHZ):           0.4193008           0.3852547           0.3639246
 Leave Link  202 at Sat Nov 17 22:37:45 2018, MaxMem=  4026531840 cpu:               0.2 elap:               0.1
 (Enter /share/apps/g16_avx/g16/l301.exe)
 General basis read from cards:  (6D, 7F)
 Centers:       1
 LANL2DZ
 ****
 Centers:       7     11     15     19     23     27     31     35     39     46
 Centers:       6      8      9     10     12     13     14     16     17     18
 Centers:      20     21     22     24     25     26     28     29     30     32
 Centers:      33     34     36     37     38     40     41     42     43     44
 Centers:      45     47     48     49     50      2      3      4      5
 6-31g(d,p)
 ****
 ======================================================================================================
                                       Pseudopotential Parameters
 ======================================================================================================
  Center     Atomic      Valence      Angular      Power
  Number     Number     Electrons     Momentum     of R      Exponent        Coefficient   SO-Coeffient
 ======================================================================================================
    1         26           16
                                      D and up 
                                                     1      392.6149787      -10.00000000    0.00000000
                                                     2       71.1756979      -63.26675180    0.00000000
                                                     2       17.7320281      -10.96133380    0.00000000
                                      S - D
                                                     0      126.0571895        3.00000000    0.00000000
                                                     1      138.1264251       18.17291370    0.00000000
                                                     2       54.2098858      339.12311640    0.00000000
                                                     2        9.2837966      317.10680120    0.00000000
                                                     2        8.6289082     -207.34216490    0.00000000
                                      P - D
                                                     0       83.1759490        5.00000000    0.00000000
                                                     1      106.0559938        5.95359300    0.00000000
                                                     2       42.8284937      294.26655270    0.00000000
                                                     2        8.7701805      154.42446350    0.00000000
                                                     2        8.0397818      -95.31642490    0.00000000
    2          7
                                   No pseudopotential on this center.
    3          7
                                   No pseudopotential on this center.
    4          7
                                   No pseudopotential on this center.
    5          7
                                   No pseudopotential on this center.
    6          8
                                   No pseudopotential on this center.
    7          6
                                   No pseudopotential on this center.
    8          1
                                   No pseudopotential on this center.
    9          1
                                   No pseudopotential on this center.
   10          1
                                   No pseudopotential on this center.
   11          6
                                   No pseudopotential on this center.
   12          1
                                   No pseudopotential on this center.
   13          1
                                   No pseudopotential on this center.
   14          1
                                   No pseudopotential on this center.
   15          6
                                   No pseudopotential on this center.
   16          1
                                   No pseudopotential on this center.
   17          1
                                   No pseudopotential on this center.
   18          1
                                   No pseudopotential on this center.
   19          6
                                   No pseudopotential on this center.
   20          1
                                   No pseudopotential on this center.
   21          1
                                   No pseudopotential on this center.
   22          1
                                   No pseudopotential on this center.
   23          6
                                   No pseudopotential on this center.
   24          1
                                   No pseudopotential on this center.
   25          1
                                   No pseudopotential on this center.
   26          1
                                   No pseudopotential on this center.
   27          6
                                   No pseudopotential on this center.
   28          1
                                   No pseudopotential on this center.
   29          1
                                   No pseudopotential on this center.
   30          1
                                   No pseudopotential on this center.
   31          6
                                   No pseudopotential on this center.
   32          1
                                   No pseudopotential on this center.
   33          1
                                   No pseudopotential on this center.
   34          1
                                   No pseudopotential on this center.
   35          6
                                   No pseudopotential on this center.
   36          1
                                   No pseudopotential on this center.
   37          1
                                   No pseudopotential on this center.
   38          1
                                   No pseudopotential on this center.
   39          6
                                   No pseudopotential on this center.
   40          1
                                   No pseudopotential on this center.
   41          1
                                   No pseudopotential on this center.
   42          1
                                   No pseudopotential on this center.
   43          1
                                   No pseudopotential on this center.
   44          1
                                   No pseudopotential on this center.
   45          1
                                   No pseudopotential on this center.
   46          6
                                   No pseudopotential on this center.
   47          1
                                   No pseudopotential on this center.
   48          1
                                   No pseudopotential on this center.
   49          1
                                   No pseudopotential on this center.
   50          1
                                   No pseudopotential on this center.
 ======================================================================================================
 Ernie: Thresh=  0.10000D-02 Tol=  0.10000D-05 Strict=F.
 Ernie:  1 primitive shells out of 353 were deleted.
 There are   419 symmetry adapted cartesian basis functions of A   symmetry.
 There are   419 symmetry adapted basis functions of A   symmetry.
   419 basis functions,   710 primitive gaussians,   419 cartesian basis functions
    74 alpha electrons       70 beta electrons
       nuclear repulsion energy      1641.5373834575 Hartrees.
 IExCor= 4639 DFT=T Ex+Corr=wB97XD ExCW=0 ScaHFX=  1.000000
 ScaDFX=  1.000000  1.000000  1.000000  1.000000 ScalE2=  1.000000  1.000000
 IRadAn=      5 IRanWt=     -1 IRanGd=            0 ICorTp=0 IEmpDi=121
 HFx  wShort=  0.000000 wLong=  0.200000 cFull=  0.222036 cShort=  0.000000 cLong=  0.777964
 DFx  wShort=  0.000000 wLong=  0.200000 cFull=  0.000000 cShort=  0.000000 cLong=  1.000000
 NAtoms=   50 NActive=   50 NUniq=   50 SFac= 1.00D+00 NAtFMM=   60 NAOKFM=F Big=F
 Integral buffers will be    131072 words long.
 Raffenetti 2 integral format.
 Two-electron integral symmetry is turned on.
 R6Disp:  Grimme-D2 Dispersion energy=       -0.0555076459 Hartrees.
 Nuclear repulsion after empirical dispersion term =     1641.4818758117 Hartrees.
 Leave Link  301 at Sat Nov 17 22:37:45 2018, MaxMem=  4026531840 cpu:               1.0 elap:               0.1
 (Enter /share/apps/g16_avx/g16/l302.exe)
 NPDir=0 NMtPBC=     1 NCelOv=     1 NCel=       1 NClECP=     1 NCelD=      1
         NCelK=      1 NCelE2=     1 NClLst=     1 CellRange=     0.0.
 One-electron integrals computed using PRISM.
 One-electron integral symmetry used in STVInt
   1 Symmetry operations used in ECPInt.
 ECPInt:  NShTT=   14535 NPrTT=   62515 LenC2=   13461 LenP2D=   37874.
 LDataN:  DoStor=T MaxTD1= 4 Len=   56
 NBasis=   419 RedAO= T EigKep=  3.50D-03  NBF=   419
 NBsUse=   419 1.00D-06 EigRej= -1.00D+00 NBFU=   419
 Precomputing XC quadrature grid using
 IXCGrd= 4 IRadAn=           5 IRanWt=          -1 IRanGd=           0 AccXCQ= 1.00D-10.
 Generated NRdTot=       0 NPtTot=           0 NUsed=           0 NTot=          32
 NSgBfM=   419   419   419   419   419 MxSgAt=    50 MxSgA2=    50.
 Leave Link  302 at Sat Nov 17 22:37:47 2018, MaxMem=  4026531840 cpu:              15.9 elap:               1.1
 (Enter /share/apps/g16_avx/g16/l303.exe)
 DipDrv:  MaxL=1.
 Leave Link  303 at Sat Nov 17 22:37:48 2018, MaxMem=  4026531840 cpu:               1.1 elap:               0.2
 (Enter /share/apps/g16_avx/g16/l401.exe)
 ExpMin= 2.20D-02 ExpMax= 5.48D+03 ExpMxC= 8.25D+02 IAcc=3 IRadAn=         5 AccDes= 0.00D+00
 Harris functional with IExCor= 4639 and IRadAn=      -1 diagonalized for initial guess.
 HarFok:  IExCor= 4639 AccDes= 0.00D+00 IRadAn=        -1 IDoV= 1 UseB2=F ITyADJ=14
 ICtDFT=  3500011 ScaDFX=  1.000000  1.000000  1.000000  1.000000
 FoFCou: FMM=F IPFlag=           0 FMFlag=      100000 FMFlg1=           0
         NFxFlg=           0 DoJE=T BraDBF=F KetDBF=T FulRan=T
         wScrn=  0.000000 ICntrl=       500 IOpCl=  0 I1Cent=   200000004 NGrid=           0
         NMat0=    1 NMatS0=      1 NMatT0=    0 NMatD0=    1 NMtDS0=    0 NMtDT0=    0
 Petite list used in FoFCou.
 Harris En= -782.879525662929    
 JPrj=0 DoOrth=F DoCkMO=F.
 Initial guess <Sx>= 0.0000 <Sy>= 0.0000 <Sz>= 2.0000 <S**2>= 6.0000 S= 2.0000
 Leave Link  401 at Sat Nov 17 22:37:49 2018, MaxMem=  4026531840 cpu:              13.0 elap:               0.9
 (Enter /share/apps/g16_avx/g16/l508.exe)
 Integral symmetry usage will be decided dynamically.
 Tight linear equation convergence will be used.
 UwB97XD wavefunction.
 Quadratic Convergence SCF Method.
 Line search only if initial step raises energy.
 Fock matrices will be formed incrementally for  20 cycles.
[...]
 .00001764,-0.00005271,0.00002856,0.00010197,0.00005923,0.00011100,-0.0
 0011913,0.00014483,0.00000921,0.00001528,-0.00003819,-0.00003652,-0.00
 003059,0.00000046,-0.00002108,0.00009775,0.00005482,0.00000695,-0.0001
 0987,-0.00012892,-0.00000442,0.00001756,0.00000034,-0.00001333,-0.0000
 2884,0.00004296,0.00001174,0.00001508,0.00000089,0.00000553,-0.0000214
 6,-0.00000049,-0.00000625,0.00002314,-0.00000110,0.00002039,0.00001572
 ,0.00000844,0.12440687,-0.15246300,-0.05929911,-0.13669676,0.15525309,
 0.00042787,0.00024951,-0.00261116,0.00000611,0.00037224,-0.00014365,-0
 .00007269,-0.00000845,-0.00079391,0.00069972,-0.00033298,-0.00062624,-
 0.00047348,0.00008555,-0.00002326,-0.00043368,-0.00120722,0.01189782,-
 0.00034414,-0.00018625,0.00038335,-0.00009011,0.00001703,-0.00014057,0
 .00004415,0.00001166,-0.00003651,0.00003238,0.00002313,0.00003849,-0.0
 0020379,-0.00021068,-0.00076615,-0.00002499,0.00006409,-0.00003300,-0.
 00006823,0.00003287,0.00018230,0.00003524,-0.00026261,-0.00031189,-0.0
 0034372,0.00024464,0.00000241,-0.00002947,-0.00010070,-0.00002635,0.00
 003474,0.00001210,0.00005168,0.00010830,0.00001433,-0.00006596,-0.0000
 3392,-0.00013214,-0.00041522,-0.00008029,0.00005968,-0.00017645,0.0001
 1024,-0.00000683,0.00003761,-0.00001281,0.00004061,-0.00003400,0.00042
 756,0.00022065,0.00010119,-0.00002987,0.00000417,-0.00000170,-0.000021
 02,-0.00012980,-0.00004304,-0.00005596,0.00002051,-0.00001043,0.000113
 04,-0.00048265,0.00032089,-0.00002903,0.00004011,-0.00001875,0.0001214
 6,0.00003370,-0.00011490,-0.00001158,0.00002475,-0.00000908,0.00050284
 ,0.00024147,-0.00030975,-0.00009658,0.00006493,0.00006329,-0.00003275,
 -0.00003103,0.00006272,0.00000172,-0.00003383,-0.00015912,-0.00023002,
 0.00031329,-0.00032501,-0.00002405,-0.00004321,0.00005763,0.00007797,0
 .00005196,0.00004094,0.00002300,-0.00012264,-0.00014514,-0.00001437,0.
 00030905,0.00034722,0.00000795,-0.00004341,-0.00000953,0.00003450,0.00
 007094,-0.00011049,-0.00003060,-0.00004017,0.00000173,0.00002691,0.000
 06562,-0.00003514,0.00006633,-0.00004467,-0.00005364,-0.00004636,-0.00
 004294,-0.00000767,0.07702161,-0.06438710,-0.06388437,-0.07768650,0.06
 404665,0.06725910,0.00302873,-0.00007566,0.00027255,-0.00013411,-0.000
 19565,-0.00002753,-0.00057489,0.00002408,0.00007255,-0.00056570,0.0003
 8045,0.00008070,-0.00083029,-0.00018814,-0.00022437,-0.00650420,0.0000
 3017,0.00011184,-0.00027734,-0.00006018,0.00022298,-0.00007036,0.00000
 796,-0.00011565,0.00002739,0.00000620,-0.00002420,0.00000083,0.0000050
 0,0.00006349,0.00005918,0.00006786,-0.00098956,-0.00001283,0.00002251,
 0.00008995,0.00004520,0.00000075,0.00034467,-0.00124305,-0.00032116,-0
 .00042542,-0.00023441,0.00013333,-0.00002807,-0.00000367,-0.00008791,-
 0.00001242,0.00002628,0.00000179,0.00009126,0.00010323,-0.00008955,-0.
 00007309,0.00006828,-0.00013617,0.00071865,-0.00029933,0.00099100,0.00
 031675,0.00006272,-0.00004932,-0.00034484,-0.00032900,-0.00020236,0.00
 013929,-0.00011953,0.00010048,-0.00008549,-0.00000701,-0.00002975,-0.0
 0005752,0.00000304,0.00004738,0.00003920,0.00006780,0.00000584,0.00002
 763,-0.00012535,0.00009127,-0.00014832,0.00000793,-0.00003257,0.000031
 90,-0.00005070,-0.00000981,0.00006769,0.00000421,0.00000854,-0.0000579
 1,0.00016443,-0.00000448,-0.00022302,-0.00002244,-0.00002904,0.0000663
 8,-0.00003380,0.00001329,-0.00001259,0.00008342,0.00011701,-0.00003648
 ,0.00009537,0.00002365,0.00047654,-0.00005342,-0.00001841,0.00001378,-
 0.00000999,0.00007231,-0.00016355,0.00003366,-0.00051756,0.00005408,-0
 .00011788,-0.00001190,-0.00004100,-0.00000799,0.00000629,-0.00004880,0
 .00001425,-0.00001366,0.00002055,-0.00001332,0.00000245,0.00003884,0.0
 0002338,-0.00000375,-0.00000031,0.00004801,-0.00001079,-0.00008862,0.0
 0005529,0.00000793,0.00011999,-0.02582242,0.00001224,-0.00015814,-0.00
 088849,-0.00022881,0.01391909,0.03581424,-0.00040506,0.00213964,0.0052
 9314,-0.00034285,-0.00143089,0.00050426,0.00003343,-0.00052476,0.00073
 203,-0.00000167,-0.00005630,0.00028324,0.00032535,0.00004745,0.0003354
 9,0.00043319,-0.00536727,-0.01530926,0.00016902,0.00016457,-0.00030600
 ,0.00005214,-0.00001429,0.00008641,-0.00001416,-0.00003606,0.00004170,
 -0.00001643,-0.00000961,-0.00000820,-0.00010168,0.00002107,0.00023608,
 0.00010558,-0.00010747,0.00013931,0.00002949,-0.00005303,-0.00007262,-
 0.00013178,0.00051948,0.00012431,0.00006336,0.00002895,-0.00020045,0.0
 0004142,0.00003559,0.00006100,0.00000463,-0.00002463,0.00005019,-0.000
 05606,-0.00004797,-0.00003659,0.00022568,0.00043029,-0.00020852,0.0006
 3248,-0.00048049,-0.00016099,-0.00014334,-0.00009740,0.00012573,-0.000
 11386,-0.00008507,0.00013683,-0.00012000,0.00000586,-0.00011889,0.0000
 0374,-0.00001869,0.00003360,-0.00001137,0.00003729,0.00002045,-0.00000
 635,-0.00004575,-0.00001708,0.00005209,0.00025153,-0.00012151,-0.00000
 749,-0.00003670,0.00002299,-0.00003391,-0.00001904,0.00002972,0.000000
 82,-0.00003117,0.00003031,-0.00066380,-0.00020105,0.00040511,0.0001291
 3,-0.00006567,-0.00008890,0.00004167,0.00006282,-0.00015929,0.00020543
 ,-0.00006852,0.00019627,0.00039181,-0.00037834,0.00081293,0.00003412,0
 .00008440,-0.00020118,-0.00010026,-0.00000807,-0.00019419,-0.00048918,
 -0.00038469,0.00024765,-0.00006322,-0.00046788,-0.00044376,-0.00001243
 ,0.00004492,-0.00002011,-0.00004554,-0.00010612,0.00018020,0.00002888,
 0.00004455,0.00000453,-0.00000267,0.00001100,-0.00008136,-0.00005121,0
 .00005601,0.00009249,0.00005248,0.00004401,0.00006091,0.00000471,-0.02
 560540,-0.00184445,0.00145148,0.00008813,-0.00984571,-0.00012935,0.034
 53982,0.00338642,0.00673802,-0.05109601,0.00141120,0.00526075,-0.00402
 505,-0.00009689,-0.00030299,-0.00602484,0.00487936,-0.00284798,-0.0043
 7801,-0.00609164,-0.00082575,-0.00496455,-0.00365729,-0.01582128,0.146
 12977,-0.00248237,-0.00236377,0.00309623,-0.00073886,0.00025820,-0.001
 09431,0.00030388,0.00014309,-0.00013518,0.00016635,0.00010257,-0.00006
 734,-0.00037610,-0.00167177,-0.00310138,0.00012490,0.00019034,0.000219
 11,-0.00069940,0.00031465,0.00043155,-0.00053133,0.00009426,-0.0011953
 9,-0.00233655,0.00271476,-0.00037082,-0.00012679,-0.00086617,-0.000040
 10,0.00026344,-0.00015485,0.00015765,0.00053966,-0.00000851,-0.0003173
 8,0.00025275,-0.00050697,-0.00354632,0.00031357,-0.00078827,-0.0009918
 9,0.00051452,-0.00010254,0.00064814,0.00013480,0.00035277,-0.00016297,
 0.00314570,0.00130408,0.00066038,-0.00023715,0.00002438,0.00008077,-0.
 00016762,-0.00091055,-0.00028440,-0.00048027,0.00002938,-0.00015270,0.
 00106983,-0.00313153,0.00227453,-0.00020585,0.00028824,-0.00015950,0.0
 0081561,0.00022229,-0.00080090,-0.00011504,0.00013904,0.00000921,0.002
 70649,0.00061760,-0.00102966,-0.00044854,0.00044413,0.00013943,-0.0001
 7417,-0.00016966,0.00021736,-0.00019552,-0.00042396,-0.00055694,-0.001
 76882,0.00141862,-0.00218851,0.00008702,-0.00021110,0.00019044,0.00053
 024,0.00028525,0.00030026,0.00002370,-0.00009859,-0.00086281,0.0000590
 9,0.00248116,0.00310353,-0.00000956,-0.00025648,-0.00004616,0.00026113
 ,0.00054682,-0.00096251,-0.00006010,-0.00027810,-0.00011782,0.00001614
 ,0.00042090,-0.00022401,0.00023367,-0.00026065,-0.00008052,-0.00030303
 ,-0.00015960,-0.00006687,0.00049372,-0.00131456,-0.01089030,-0.0038808
 0,0.00520007,-0.02025330,0.00016559,0.00365330,0.00006179,-0.00017668,
 -0.00014811,0.00022810,-0.00007342,-0.00010671,0.00006147,0.00001413,0
 .00002346,0.00020709,-0.00020167,0.00005510,-0.00002359,0.00028612,0.0
 0003107,0.00013999,0.00087700,0.00081283,-0.00292881,0.00013639,0.0000
 9378,-0.00016094,0.00004273,-0.00000805,0.00005986,-0.00001945,-0.0000
 0383,0.00000894,-0.00001056,-0.00000525,-0.00000795,0.00005747,0.00005
 278,0.00029421,-0.00001354,-0.00000911,-0.00001321,0.00003977,-0.00000
 443,-0.00003719,-0.00004099,0.00004928,0.00010694,0.00012561,-0.000134
 44,0.00001240,0.00001402,0.00004344,0.00001250,-0.00001210,0.00000274,
 -0.00001726,-0.00004457,-0.00000325,0.00002676,0.00003837,0.00007465,0
 .00021799,0.00005490,-0.00004597,-0.00003094,-0.00002938,0.00001739,-0
 .00000074,0.00003973,-0.00006153,0.00001034,-0.00011705,-0.00005615,-0
 .00004086,0.00000983,-0.00000584,-0.00000715,0.00000193,0.00003307,0.0
 0001446,0.00001855,-0.00001028,0.00000891,-0.00004182,0.00009565,-0.00
 008942,0.00001633,-0.00000830,0.00000742,-0.00002793,-0.00000149,0.000
 03363,0.00000856,-0.00000897,-0.00000413,-0.00010703,-0.00002656,0.000
 03310,0.00001451,-0.00001254,-0.00001473,0.00000308,0.00000824,0.00001
 524,-0.00004967,0.00000320,0.00001888,0.00009602,-0.00003008,0.0000157
 4,-0.00000748,0.00000131,0.00005277,-0.00001046,-0.00001336,-0.0000077
 6,0.00007057,0.00009985,-0.00013288,0.00002653,-0.00005301,-0.00010837
 ,0.00000125,0.00001136,0.00001279,-0.00000877,-0.00001609,0.00002507,0
 .00000269,0.00001116,0.00000401,-0.00000249,-0.00002374,0.00000785,-0.
 00001913,0.00000779,-0.00000379,0.00001887,0.00000178,-0.00000497,-0.2
 8939500,-0.07781943,-0.07666250,-0.01391681,-0.00818872,-0.00816948,-0
 .00180518,-0.00126082,0.00436778,0.30455850,-0.00014497,0.00010319,0.0
 0034534,-0.00006710,-0.00009967,-0.00006730,0.00002182,-0.00003522,0.0
 0015718,-0.00010642,-0.00001210,0.00011402,0.00018959,0.00004234,0.000
 16861,0.00049305,-0.00001446,-0.00226237,0.00006356,0.00009841,-0.0000
 9140,0.00002617,-0.00000997,0.00003290,-0.00000968,-0.00000176,0.00000
 279,-0.00000485,-0.00000703,0.00000789,-0.00001715,0.00010284,0.000091
 87,-0.00001106,0.00000931,-0.00003277,0.00003709,-0.00001468,0.0000055
 2,-0.00003274,-0.00014509,-0.00002020,0.00010761,-0.00011589,0.0000516
 0,0.00000956,0.00002858,0.00000114,-0.00001522,0.00001346,-0.00002278,
 -0.00003580,-0.00000738,0.00004119,0.00012213,0.00014039,-0.00001018,-
 0.00012523,-0.00016688,-0.00015210,-0.00001542,-0.00001488,-0.00000177
 ,0.00002700,0.00004434,-0.00003505,-0.00006468,-0.00006858,0.00000452,
 0.00001366,0.00000242,0.00001210,0.00000393,0.00001432,-0.00000889,-0.
 00001128,-0.00000574,0.00000063,0.00004632,0.00009176,-0.00001690,0.00
 000068,-0.00000702,0.00000361,-0.00000999,-0.00000683,0.00000112,-0.00
 000253,-0.00001672,0.00002137,-0.00010215,-0.00005006,0.00002702,0.000
 01685,-0.00002963,0.00001573,-0.00000265,0.00001099,-0.00003177,0.0000
 5034,0.00005737,0.00002690,0.00005540,-0.00016780,0.00026217,0.0000120
 6,0.00002475,-0.00006189,-0.00001314,-0.00002721,-0.00001631,0.0000343
 3,0.00010195,0.00014917,-0.00005524,-0.00008124,-0.00008905,-0.0000053
 7,0.00001631,-0.00001728,-0.00000253,-0.00002394,0.00003488,0.00000896
 ,0.00001151,0.00000689,-0.00000883,-0.00000931,-0.00000692,-0.00000713
 ,0.00001860,0.00000974,0.00000599,0.00002327,0.00000256,-0.07703679,-0
 .07722723,-0.02711171,0.01656277,0.00807100,0.00621236,0.00099440,0.00
 040687,0.00356474,0.08515375,0.07269239,-0.00000200,0.00031269,-0.0024
 6798,0.00022481,0.00027379,-0.00004389,0.00003922,-0.00002339,-0.00079
 534,0.00043028,-0.00006856,0.00004197,-0.00081555,-0.00006318,-0.00069
 670,-0.00015785,-0.00124434,0.01162487,-0.00032650,-0.00035745,0.00044
 537,-0.00010775,0.00003729,-0.00015676,0.00004191,0.00002018,-0.000019
 38,0.00002194,0.00001635,-0.00001752,0.00001089,-0.00025865,-0.0003537
 7,0.00001180,0.00002507,0.00001380,-0.00012090,0.00004910,0.00001763,0
 .00014237,0.00002194,-0.00019203,-0.00029694,0.00039340,-0.00002797,-0
 .00002542,-0.00011619,-0.00001683,0.00002963,-0.00001716,0.00000644,0.
 00007963,0.00003815,-0.00003895,0.00004316,-0.00018882,-0.00073263,-0.
 00016322,-0.00029245,-0.00019807,0.00006311,0.00001234,0.00019503,0.00
 019061,0.00017304,-0.00018313,0.00038026,0.00007107,0.00013328,-0.0000
 2110,0.00002974,0.00005078,-0.00000847,-0.00010693,-0.00004872,-0.0000
 7947,0.00002145,-0.00003895,0.00020811,-0.00034516,0.00031330,-0.00003
 547,0.00003826,-0.00004320,0.00010212,0.00001913,-0.00011800,-0.000026
 96,0.00002191,0.00004226,0.00033973,0.00018310,-0.00009981,-0.00005694
 ,0.00007106,0.00000613,0.00000478,-0.00004507,0.00005357,-0.00004464,-
 0.00010475,-0.00009937,-0.00023892,0.00040544,-0.00058469,0.00002467,-
 0.00002486,0.00002005,0.00008571,0.00001326,0.00014246,-0.00014744,0.0
 0008162,-0.00024806,0.00008385,0.00029332,0.00036213,0.00001207,-0.000
 05002,0.00002624,0.00002177,0.00007352,-0.00011559,-0.00001804,-0.0000
 3642,-0.00002953,-0.00001742,0.00007724,-0.00003976,0.00003063,-0.0000
 5761,-0.00001250,-0.00007580,-0.00002791,-0.00005183,-0.08418327,-0.02
 992882,-0.05608618,0.01094323,0.00344360,0.00608733,-0.01728974,-0.004
 20487,-0.01953228,0.08422072,0.02884561,0.05904964,0.00020530,-0.00005
 909,-0.00006249,0.00003251,0.00004459,0.00000331,-0.00005044,0.0000132
 5,-0.00005401,0.00005331,0.00007841,-0.00008482,-0.00006716,-0.0000614
 2,0.00002453,-0.00036509,0.00017100,0.00071956,-0.00005527,-0.00001708
 ,0.00004134,-0.00001577,0.00000213,-0.00002232,0.00000762,-0.00000427,
 -0.00000154,0.00000390,0.00000440,0.00001184,-0.00005404,-0.00003372,-
 0.00017491,0.00002645,-0.00002389,0.00007073,-0.00003152,0.00000270,-0
 .00000791,0.00005514,0.00012697,-0.00006350,-0.00009156,0.00006201,-0.
 00003673,-0.00001444,-0.00001741,-0.00001993,0.00000834,-0.00001474,0.
 00004152,0.00007781,-0.00000702,-0.00003789,-0.00015268,-0.00016380,0.
 00012580,0.00001922,0.00001618,0.00018591,0.00000849,0.00002862,-0.000
 01196,0.00003696,0.00001971,-0.00005711,-0.00001222,0.00002660,0.00001
 381,0.00000017,0.00000785,-0.00002642,-0.00000600,0.00000079,0.0000144
 9,0.00003613,0.00000219,0.00002229,-0.00005246,-0.00003244,-0.00002405
 ,0.00000209,0.00000358,0.00000088,-0.00000521,0.00000172,0.00001055,0.
 00000517,0.00001003,-0.00002290,0.00001265,-0.00001593,0.00003413,-0.0
 0000860,0.00000757,-0.00000653,0.00000595,0.00000174,-0.00001444,-0.00
 000172,-0.00001553,0.00004069,0.00000747,0.00006705,-0.00011921,-0.000
 00286,-0.00001241,0.00001425,-0.00000250,0.00000266,0.00002092,-0.0000
 4668,0.00005024,-0.00009440,0.00003616,0.00002682,0.00004168,-0.000000
 49,-0.00000526,0.00000821,-0.00000072,0.00000944,-0.00001362,-0.000001
 04,-0.00000444,-0.00000525,0.00001895,0.00000155,0.00000140,0.00001466
 ,-0.00000016,-0.00001224,0.00000494,-0.00001062,0.00001046,-0.06056704
 ,-0.04737278,0.00882591,0.00694403,0.02157572,-0.00515328,0.00031985,-
 0.00018764,-0.00108287,-0.00044228,-0.02614903,0.00647279,0.05410451,-
 0.00006148,-0.00019529,-0.00006604,0.00005588,0.00021356,-0.00007883,0
 .00001216,0.00002386,-0.00016163,0.00011760,-0.00006611,-0.00002995,-0
 .00011946,-0.00001089,-0.00005912,0.00023431,0.00082601,0.00224098,-0.
 00002654,-0.00006509,0.00008154,-0.00001675,0.00000507,-0.00002128,0.0
 0000891,0.00000485,-0.00000572,0.00000798,0.00000574,-0.00000909,0.000
 03339,-0.00006309,-0.00003145,-0.00001270,0.00001968,-0.00004962,-0.00
 001711,0.00000743,0.00001126,0.00005079,-0.00011539,0.00004642,-0.0000
 6334,0.00006480,0.00001058,-0.00000875,-0.00001571,-0.00000163,0.00000
 589,0.00000533,-0.00001061,0.00001740,0.00004705,0.00002692,-0.0000424
 5,-0.00006615,-0.00011709,-0.00011301,0.00004173,0.00009584,0.00002911
 ,-0.00000102,0.00000139,0.00000879,0.00000784,-0.00002574,0.00011017,0
 .00004971,0.00002361,-0.00001011,0.00000008,0.00000431,0.00000246,-0.0
 0002494,-0.00001179,-0.00001811,0.00002466,-0.00000300,0.00000067,-0.0
 0008507,0.00006137,-0.00000858,0.00000715,-0.00000651,0.00002100,0.000
 00466,-0.00002010,-0.00000519,0.00001183,-0.00000378,0.00015619,0.0000
 5419,-0.00008408,-0.00001950,0.00002878,0.00000329,-0.00000791,-0.0000
 1513,0.00003219,-0.00002234,-0.00003567,-0.00005823,-0.00009060,0.0001
 0347,-0.00016726,-0.00000523,-0.00001612,0.00002979,0.00002697,0.00002
 222,0.00001608,0.00000314,-0.00005027,-0.00005074,0.00000446,0.0001056
 2,0.00013584,0.00000186,-0.00001397,0.00000076,0.00001204,0.00003036,-
 0.00004297,-0.00000711,-0.00001291,-0.00000466,-0.00000143,0.00001502,
 0.00000739,0.00000879,-0.00001367,0.00000364,-0.00001485,-0.00000881,-
 0.00000020,-0.04748750,-0.32383190,0.04688543,-0.00524727,-0.01140916,
 0.00474742,-0.00072818,-0.00329196,-0.00333380,0.00138238,-0.00376002,
 0.00249995,0.05184315,0.34143764,0.00025668,0.00051823,-0.00255230,0.0
 0022674,0.00080511,-0.00057180,-0.00002509,-0.00007660,-0.00086240,0.0
 0028862,-0.00034921,-0.00008951,-0.00043413,-0.00014831,-0.00017967,-0
 .00030889,-0.00128973,0.01226282,-0.00029972,-0.00026682,0.00035279,-0
 .00009308,0.00002448,-0.00012918,0.00005264,-0.00000298,-0.00001164,0.
 00003095,0.00002604,0.00000264,-0.00016172,-0.00028306,-0.00057805,0.0
 0005503,-0.00000490,0.00006150,-0.00010342,0.00002810,0.00007782,0.000
 06173,0.00012150,-0.00016244,-0.00049997,0.00041435,-0.00017568,-0.000
 01468,-0.00014862,0.00000884,0.00004806,-0.00002920,0.00006825,0.00008
 766,0.00000437,-0.00009892,0.00018359,0.00000170,-0.00073031,0.0000377
 3,-0.00003232,-0.00020677,0.00003798,-0.00006799,0.00014279,-0.0000398
 1,0.00002067,-0.00000518,0.00053212,0.00017548,0.00004731,-0.00003793,
 -0.00000046,0.00004221,-0.00002928,-0.00014072,-0.00004523,-0.00008196
 ,-0.00000403,-0.00004992,0.00017262,-0.00032559,0.00029841,-0.00004644
 ,0.00002248,-0.00002687,0.00010010,0.00001588,-0.00010500,-0.00002916,
 0.00002192,0.00002917,0.00045566,0.00007535,-0.00014509,-0.00007122,0.
 00008082,0.00000694,-0.00002460,-0.00002281,0.00001960,0.00000203,-0.0
 0010753,-0.00009525,-0.00032072,0.00020726,-0.00030164,0.00001669,-0.0
 0002540,0.00001565,0.00009642,0.00006238,0.00002142,-0.00007823,-0.000
 12783,-0.00015079,-0.00001221,0.00036931,0.00051475,-0.00000059,-0.000
 03972,-0.00001349,0.00004359,0.00009247,-0.00015628,-0.00000930,-0.000
 04205,-0.00002195,0.00000520,0.00009295,-0.00007026,0.00006573,-0.0000
 3264,-0.00002046,-0.00006899,-0.00000869,-0.00001275,0.01022353,0.0546
 7515,-0.03905815,-0.00209569,-0.01130687,0.00475969,0.00311072,0.01970
 373,-0.01799943,-0.00175830,-0.01016457,0.00445715,-0.00954668,-0.0525
 1111,0.04143667\\0.00000278,-0.00000156,-0.00000063,-0.00000013,0.0000
 0140,0.00000151,-0.00000032,0.00000259,-0.00000103,-0.00000320,-0.0000
 0002,0.00000171,-0.00000021,-0.00000099,-0.00000065,0.00000183,-0.0000
 0435,0.00000006,-0.00000045,0.00000035,-0.00000002,-0.00000015,0.00000
 115,0.00000008,0.00000051,0.00000079,-0.00000052,0.00000372,0.00000044
 ,-0.00000083,0.00000022,0.00000066,0.00000028,0.00000025,0.00000146,-0
 .00000006,-0.00000002,0.00000040,-0.00000013,-0.00000115,-0.00000007,0
 .00000031,-0.00000150,0.00000008,-0.00000009,-0.00000030,0.00000049,-0
 .00000022,-0.00000090,0.00000065,0.00000029,-0.00000036,0.00000053,-0.
 00000040,0.00000160,-0.00000120,0.00000012,-0.00000331,0.00000076,-0.0
 0000020,-0.00000015,-0.00000042,-0.00000022,-0.00000196,-0.00000137,-0
 .00000052,-0.00000216,0.00000106,0.00000012,-0.00000037,-0.00000004,-0
 .00000063,-0.00000052,-0.00000038,0.00000029,0.00000341,-0.00000049,0.
 00000025,0.00000050,-0.00000021,0.00000071,-0.00000130,-0.00000180,-0.
 00000298,-0.00000012,-0.00000014,0.00000033,0.00000285,-0.00000187,0.0
 0000026,-0.00000027,-0.00000039,-0.00000076,0.00000038,-0.00000029,-0.
 00000004,0.00000094,0.00000024,-0.00000019,0.00000081,-0.00000021,0.00
 000053,-0.00000087,0.00000133,0.00000195,0.00000069,0.00000258,0.00000
 039,-0.00000076,-0.00000077,0.00000141,0.00000275,0.00000280,-0.000002
 74,0.00000259,-0.00000200,0.00000019,-0.00000080,-0.00000012,0.0000011
 6,0.00000241,-0.00000037,0.00000021,-0.00000083,0.00000088,-0.00000068
 ,0.00000033,-0.00000015,0.00000050,-0.00000503,-0.00000269,0.00000145,
 -0.00000061,0.00000189,0.00000033,0.00000518,0.00000241,0.00000039,-0.
 00000528,-0.00000171,0.,-0.00000183,-0.00000047,-0.00000072,0.00000316
 ,-0.00000107,-0.00000049,-0.00000205,0.00000019,-0.00000006\\\@


 A SUCCESSFUL PURSUIT OF SCIENCE MAKES A MAN THE
 BENEFACTOR OF ALL MANKIND OF EVERY AGE.
   --  JOSEPH PRIESTLEY, "EXPERIMENTS AND
 OBSERVATIONS ON DIFFERENT KINDS OF AIR", 1774
 Job cpu time:       0 days  7 hours 33 minutes 50.5 seconds.
 Elapsed time:       0 days  0 hours 28 minutes 23.4 seconds.
 File lengths (MBytes):  RWF=   1731 Int=      0 D2E=      0 Chk=     30 Scr=      1
 Normal termination of Gaussian 16 at Sun Nov 18 03:38:32 2018.
