 Entering Gaussian System, Link 0=g16
 Initial command:
 /share/apps/g16_avx/g16/l1.exe "/state/partition1/2545/Gau-7004.inp" -scrdir="/state/partition1/2545/"
 Entering Link 1 = /share/apps/g16_avx/g16/l1.exe PID=      7005.
  
 Copyright (c) 1988,1990,1992,1993,1995,1998,2003,2009,2016,
            Gaussian, Inc.  All Rights Reserved.
  
 This is part of the Gaussian(R) 16 program.  It is based on
 the Gaussian(R) 09 system (copyright 2009, Gaussian, Inc.),
 the Gaussian(R) 03 system (copyright 2003, Gaussian, Inc.),
 the Gaussian(R) 98 system (copyright 1998, Gaussian, Inc.),
 the Gaussian(R) 94 system (copyright 1995, Gaussian, Inc.),
 the Gaussian 92(TM) system (copyright 1992, Gaussian, Inc.),
 the Gaussian 90(TM) system (copyright 1990, Gaussian, Inc.),
 the Gaussian 88(TM) system (copyright 1988, Gaussian, Inc.),
 the Gaussian 86(TM) system (copyright 1986, Carnegie Mellon
 University), and the Gaussian 82(TM) system (copyright 1983,
 Carnegie Mellon University). Gaussian is a federally registered
 trademark of Gaussian, Inc.
  
 This software contains proprietary and confidential information,
 including trade secrets, belonging to Gaussian, Inc.
  
 This software is provided under written license and may be
 used, copied, transmitted, or stored only in accord with that
 written license.
  
 The following legend is applicable only to US Government
 contracts under FAR:
  
                    RESTRICTED RIGHTS LEGEND
  
 Use, reproduction and disclosure by the US Government is
 subject to restrictions as set forth in subparagraphs (a)
 and (c) of the Commercial Computer Software - Restricted
 Rights clause in FAR 52.227-19.
  
 Gaussian, Inc.
 340 Quinnipiac St., Bldg. 40, Wallingford CT 06492
  
  
 ---------------------------------------------------------------
 Warning -- This program may not be used in any manner that
 competes with the business of Gaussian, Inc. or will provide
 assistance to any competitor of Gaussian, Inc.  The licensee
 of this program is prohibited from giving any competitor of
 Gaussian, Inc. access to this program.  By using this program,
 the user acknowledges that Gaussian, Inc. is engaged in the
 business of creating and licensing software in the field of
 computational chemistry and represents and warrants to the
 licensee that it is not a competitor of Gaussian, Inc. and that
 it will not use this program in any manner prohibited above.
 ---------------------------------------------------------------
  

 Cite this work as:
 Gaussian 16, Revision A.03,
 M. J. Frisch, G. W. Trucks, H. B. Schlegel, G. E. Scuseria, 
 M. A. Robb, J. R. Cheeseman, G. Scalmani, V. Barone, 
 G. A. Petersson, H. Nakatsuji, X. Li, M. Caricato, A. V. Marenich, 
 J. Bloino, B. G. Janesko, R. Gomperts, B. Mennucci, H. P. Hratchian, 
 J. V. Ortiz, A. F. Izmaylov, J. L. Sonnenberg, D. Williams-Young, 
 F. Ding, F. Lipparini, F. Egidi, J. Goings, B. Peng, A. Petrone, 
 T. Henderson, D. Ranasinghe, V. G. Zakrzewski, J. Gao, N. Rega, 
 G. Zheng, W. Liang, M. Hada, M. Ehara, K. Toyota, R. Fukuda, 
 J. Hasegawa, M. Ishida, T. Nakajima, Y. Honda, O. Kitao, H. Nakai, 
 T. Vreven, K. Throssell, J. A. Montgomery, Jr., J. E. Peralta, 
 F. Ogliaro, M. J. Bearpark, J. J. Heyd, E. N. Brothers, K. N. Kudin, 
 V. N. Staroverov, T. A. Keith, R. Kobayashi, J. Normand, 
 K. Raghavachari, A. P. Rendell, J. C. Burant, S. S. Iyengar, 
 J. Tomasi, M. Cossi, J. M. Millam, M. Klene, C. Adamo, R. Cammi, 
 J. W. Ochterski, R. L. Martin, K. Morokuma, O. Farkas, 
 J. B. Foresman, and D. J. Fox, Gaussian, Inc., Wallingford CT, 2016.
 
 ******************************************
 Gaussian 16:  ES64L-G16RevA.03 25-Dec-2016
                15-Oct-2018 
 ******************************************
 %chk=w10.chk
 %mem=30GB
 %nprocs=16
 Will use up to   16 processors via shared memory.
 ----------------------------------------------------------------------
 #wb97xd/gen pseudo opt=(maxcycle=1024) freq=noraman int=ultrafine 6d g
 09defaults
 ----------------------------------------------------------------------
 1/6=1024,14=-1,18=20,19=15,26=4,38=1,158=3,167=1/1,3;
 2/9=110,12=2,17=6,18=5,40=1/2;
 3/5=7,8=2,11=2,16=1,17=8,25=1,27=10,30=1,71=1,74=-58,75=-5,158=3/1,2,3;
 4/60=-1/1;
 5/5=2,38=5,87=10/2;
 6/7=2,8=2,9=2,10=2,28=1,87=10/1;
 7/87=10/1,2,3,16;
 1/6=1024,14=-1,18=20,19=15,26=4,158=3,167=1/3(2);
 2/9=110/2;
 99//99;
 2/9=110/2;
 3/5=7,6=1,8=2,11=2,16=1,17=8,25=1,27=10,30=1,71=1,74=-58,75=-5,82=7,158=3/1,2,3;
 4/5=5,16=3,60=-1,69=1/1;
 5/5=2,38=5,87=10/2;
 7/87=10/1,2,3,16;
 1/6=1024,14=-1,18=20,19=15,26=4,158=3,167=1/3(-5);
 2/9=110/2;
 6/7=2,8=2,9=2,10=2,19=2,28=1,87=10/1;
 99/9=1/99;
 Using 2006 physical constants.
 -------------------
 Title Card Required
 -------------------
 Symbolic Z-matrix:
 Charge =  2 Multiplicity = 5
 Fe                   -2.60917   1.9582   -0.09309 
 N                    -3.56819   4.01714  -0.2353 
 N                    -2.57577   1.65904  -2.2183 
 N                    -0.3124    1.93429   0.01454 
 N                    -3.9256    0.09271   0.22204 
 O                    -2.6395    2.11838   1.50219 
 C                    -4.69676  -0.32494  -0.97169 
 H                    -5.34413  -1.18395  -0.71925 
 H                    -5.35038   0.49017  -1.31632 
 H                    -4.02831  -0.65143  -1.78042 
 C                    -4.87865   0.31966   1.33844 
 H                    -5.64197   1.0511    1.04491 
 H                    -5.38772  -0.62988   1.58049 
 H                    -4.34323   0.67608   2.22747 
 C                    -2.99996  -0.99759   0.61178 
 H                    -3.57085  -1.91934   0.82513 
 H                    -2.29905  -1.21973  -0.20511 
 H                    -2.45279  -0.71528   1.52158 
 C                     0.14073   2.27572   1.38832 
 H                    -0.26598   1.5594    2.11302 
 H                     1.2438    2.24172   1.42749 
 H                    -0.19195   3.28483   1.66117 
 C                     0.21577   0.59244  -0.32937 
 H                    -0.10245   0.28388  -1.33596 
 H                     1.32061   0.60967  -0.32301 
 H                    -0.11215  -0.14715   0.41179 
 C                     0.2542    2.92902  -0.92691 
 H                    -0.13954   3.93204  -0.71514 
 H                     1.35261   2.97108  -0.81475 
 H                     0.04568   2.65325  -1.96991 
 C                    -4.99423   3.8475    0.13405 
 H                    -5.51473   4.82066   0.08234 
 H                    -5.49431   3.16188  -0.56593 
 H                    -5.07047   3.46728   1.16051 
 C                    -2.9324    4.93302   0.74597 
 H                    -1.89204   5.13721   0.4598 
 H                    -3.47695   5.89371   0.76075 
 H                    -2.9606    4.48877   1.74888 
 C                    -3.48997   4.6352   -1.57976 
 H                    -4.05283   4.04499  -2.31665 
 H                    -3.94124   5.64334  -1.55615 
 H                    -2.44303   4.74841  -1.89631 
 H                    -2.12817   0.78691  -2.51892 
 H                    -3.50458   1.62169  -2.65 
 H                    -2.0863    2.38829  -2.74598 
 
 Add virtual bond connecting atoms N2         and Fe1        Dist= 4.30D+00.
 Add virtual bond connecting atoms H38        and O6         Dist= 4.54D+00.
 Add virtual bond connecting atoms Fe1        and N4         Dist= 4.35D+00.
 Add virtual bond connecting atoms H36        and H28        Dist= 4.59D+00.
 Add virtual bond connecting atoms H43        and H24        Dist= 4.53D+00.
 Add virtual bond connecting atoms H45        and H30        Dist= 4.32D+00.
 Add virtual bond connecting atoms N5         and Fe1        Dist= 4.36D+00.
 Add virtual bond connecting atoms H14        and O6         Dist= 4.44D+00.

 GradGradGradGradGradGradGradGradGradGradGradGradGradGradGradGradGradGrad
 Berny optimization.
 Initialization pass.
                           ----------------------------
                           !    Initial Parameters    !
                           ! (Angstroms and Degrees)  !
 --------------------------                            --------------------------
 ! Name  Definition              Value          Derivative Info.                !
 --------------------------------------------------------------------------------
 ! R1    R(1,2)                  2.2758         estimate D2E/DX2                !
 ! R2    R(1,3)                  2.1464         estimate D2E/DX2                !
 ! R3    R(1,4)                  2.2994         estimate D2E/DX2                !
 ! R4    R(1,5)                  2.3049         estimate D2E/DX2                !
 ! R5    R(1,6)                  1.6036         estimate D2E/DX2                !
 ! R6    R(2,31)                 1.4828         estimate D2E/DX2                !
 ! R7    R(2,35)                 1.4852         estimate D2E/DX2                !
 ! R8    R(2,39)                 1.4818         estimate D2E/DX2                !
 ! R9    R(3,43)                 1.0253         estimate D2E/DX2                !
 ! R10   R(3,44)                 1.0249         estimate D2E/DX2                !
 ! R11   R(3,45)                 1.0246         estimate D2E/DX2                !
 ! R12   R(4,19)                 1.4863         estimate D2E/DX2                !
 ! R13   R(4,23)                 1.4825         estimate D2E/DX2                !
 ! R14   R(4,27)                 1.4822         estimate D2E/DX2                !
 ! R15   R(5,7)                  1.4812         estimate D2E/DX2                !
 ! R16   R(5,11)                 1.4853         estimate D2E/DX2                !
 ! R17   R(5,15)                 1.4824         estimate D2E/DX2                !
 ! R18   R(6,14)                 2.3471         estimate D2E/DX2                !
 ! R19   R(6,38)                 2.4047         estimate D2E/DX2                !
 ! R20   R(7,8)                  1.1048         estimate D2E/DX2                !
 ! R21   R(7,9)                  1.1002         estimate D2E/DX2                !
 ! R22   R(7,10)                 1.0988         estimate D2E/DX2                !
 ! R23   R(11,12)                1.0972         estimate D2E/DX2                !
 ! R24   R(11,13)                1.1043         estimate D2E/DX2                !
 ! R25   R(11,14)                1.0973         estimate D2E/DX2                !
 ! R26   R(15,16)                1.105          estimate D2E/DX2                !
 ! R27   R(15,17)                1.0991         estimate D2E/DX2                !
 ! R28   R(15,18)                1.0986         estimate D2E/DX2                !
 ! R29   R(19,20)                1.0971         estimate D2E/DX2                !
 ! R30   R(19,21)                1.1043         estimate D2E/DX2                !
 ! R31   R(19,22)                1.097          estimate D2E/DX2                !
 ! R32   R(23,24)                1.0999         estimate D2E/DX2                !
 ! R33   R(23,25)                1.105          estimate D2E/DX2                !
 ! R34   R(23,26)                1.0972         estimate D2E/DX2                !
 ! R35   R(24,43)                2.3992         estimate D2E/DX2                !
 ! R36   R(27,28)                1.0981         estimate D2E/DX2                !
 ! R37   R(27,29)                1.1049         estimate D2E/DX2                !
 ! R38   R(27,30)                1.0988         estimate D2E/DX2                !
 ! R39   R(28,36)                2.4298         estimate D2E/DX2                !
 ! R40   R(30,45)                2.2843         estimate D2E/DX2                !
 ! R41   R(31,32)                1.1048         estimate D2E/DX2                !
 ! R42   R(31,33)                1.1001         estimate D2E/DX2                !
 ! R43   R(31,34)                1.0973         estimate D2E/DX2                !
 ! R44   R(35,36)                1.0981         estimate D2E/DX2                !
 ! R45   R(35,37)                1.1044         estimate D2E/DX2                !
 ! R46   R(35,38)                1.0973         estimate D2E/DX2                !
 ! R47   R(39,40)                1.0992         estimate D2E/DX2                !
 ! R48   R(39,41)                1.1048         estimate D2E/DX2                !
 ! R49   R(39,42)                1.0996         estimate D2E/DX2                !
 ! A1    A(2,1,3)               94.0591         estimate D2E/DX2                !
 ! A2    A(2,1,4)              115.6741         estimate D2E/DX2                !
 ! A3    A(2,1,5)              120.0076         estimate D2E/DX2                !
 ! A4    A(2,1,6)               87.9267         estimate D2E/DX2                !
 ! A5    A(3,1,4)               91.6821         estimate D2E/DX2                !
 ! A6    A(3,1,5)               91.8022         estimate D2E/DX2                !
 ! A7    A(4,1,5)              123.7576         estimate D2E/DX2                !
 ! A8    A(4,1,6)               88.4737         estimate D2E/DX2                !
 ! A9    A(5,1,6)               86.2175         estimate D2E/DX2                !
 ! A10   A(1,2,31)             106.6303         estimate D2E/DX2                !
 ! A11   A(1,2,35)             109.6468         estimate D2E/DX2                !
 ! A12   A(1,2,39)             114.3188         estimate D2E/DX2                !
 ! A13   A(31,2,35)            108.5216         estimate D2E/DX2                !
 ! A14   A(31,2,39)            108.9341         estimate D2E/DX2                !
 ! A15   A(35,2,39)            108.6415         estimate D2E/DX2                !
 ! A16   A(1,3,43)             114.5593         estimate D2E/DX2                !
 ! A17   A(1,3,44)             114.0805         estimate D2E/DX2                !
 ! A18   A(1,3,45)             114.7175         estimate D2E/DX2                !
 ! A19   A(43,3,44)            103.9528         estimate D2E/DX2                !
 ! A20   A(43,3,45)            104.232          estimate D2E/DX2                !
 ! A21   A(44,3,45)            104.0005         estimate D2E/DX2                !
 ! A22   A(1,4,19)             110.2053         estimate D2E/DX2                !
 ! A23   A(1,4,23)             110.7577         estimate D2E/DX2                !
 ! A24   A(1,4,27)             110.1892         estimate D2E/DX2                !
 ! A25   A(19,4,23)            108.2835         estimate D2E/DX2                !
 ! A26   A(19,4,27)            108.4435         estimate D2E/DX2                !
 ! A27   A(23,4,27)            108.9004         estimate D2E/DX2                !
 ! A28   A(1,5,7)              114.5431         estimate D2E/DX2                !
 ! A29   A(1,5,11)             110.2168         estimate D2E/DX2                !
 ! A30   A(1,5,15)             105.9384         estimate D2E/DX2                !
 ! A31   A(7,5,11)             108.3463         estimate D2E/DX2                !
 ! A32   A(7,5,15)             109.2437         estimate D2E/DX2                !
 ! A33   A(11,5,15)            108.3868         estimate D2E/DX2                !
 ! A34   A(1,6,14)             105.0554         estimate D2E/DX2                !
 ! A35   A(1,6,38)             101.7151         estimate D2E/DX2                !
 ! A36   A(14,6,38)            118.496          estimate D2E/DX2                !
 ! A37   A(5,7,8)              109.8851         estimate D2E/DX2                !
 ! A38   A(5,7,9)              110.6615         estimate D2E/DX2                !
 ! A39   A(5,7,10)             111.1122         estimate D2E/DX2                !
 ! A40   A(8,7,9)              107.4272         estimate D2E/DX2                !
 ! A41   A(8,7,10)             107.0729         estimate D2E/DX2                !
 ! A42   A(9,7,10)             110.5477         estimate D2E/DX2                !
 ! A43   A(5,11,12)            110.3153         estimate D2E/DX2                !
 ! A44   A(5,11,13)            109.2187         estimate D2E/DX2                !
 ! A45   A(5,11,14)            110.213          estimate D2E/DX2                !
 ! A46   A(12,11,13)           108.1287         estimate D2E/DX2                !
 ! A47   A(12,11,14)           109.8572         estimate D2E/DX2                !
 ! A48   A(13,11,14)           109.0656         estimate D2E/DX2                !
 ! A49   A(6,14,11)            107.6632         estimate D2E/DX2                !
 ! A50   A(5,15,16)            109.9793         estimate D2E/DX2                !
 ! A51   A(5,15,17)            110.5765         estimate D2E/DX2                !
 ! A52   A(5,15,18)            109.861          estimate D2E/DX2                !
 ! A53   A(16,15,17)           107.7216         estimate D2E/DX2                !
 ! A54   A(16,15,18)           108.1675         estimate D2E/DX2                !
 ! A55   A(17,15,18)           110.4782         estimate D2E/DX2                !
 ! A56   A(4,19,20)            110.3356         estimate D2E/DX2                !
 ! A57   A(4,19,21)            109.2832         estimate D2E/DX2                !
 ! A58   A(4,19,22)            110.4104         estimate D2E/DX2                !
 ! A59   A(20,19,21)           109.0726         estimate D2E/DX2                !
 ! A60   A(20,19,22)           108.8976         estimate D2E/DX2                !
 ! A61   A(21,19,22)           108.8097         estimate D2E/DX2                !
 ! A62   A(4,23,24)            111.2943         estimate D2E/DX2                !
 ! A63   A(4,23,25)            109.9243         estimate D2E/DX2                !
 ! A64   A(4,23,26)            110.3006         estimate D2E/DX2                !
 ! A65   A(24,23,25)           107.3932         estimate D2E/DX2                !
 ! A66   A(24,23,26)           110.0375         estimate D2E/DX2                !
 ! A67   A(25,23,26)           107.7849         estimate D2E/DX2                !
 ! A68   A(23,24,43)           129.5481         estimate D2E/DX2                !
 ! A69   A(4,27,28)            110.6978         estimate D2E/DX2                !
 ! A70   A(4,27,29)            109.9432         estimate D2E/DX2                !
 ! A71   A(4,27,30)            111.2189         estimate D2E/DX2                !
 ! A72   A(28,27,29)           107.5836         estimate D2E/DX2                !
 ! A73   A(28,27,30)           110.1359         estimate D2E/DX2                !
 ! A74   A(29,27,30)           107.1308         estimate D2E/DX2                !
 ! A75   A(27,28,36)           143.5979         estimate D2E/DX2                !
 ! A76   A(27,30,45)           121.9189         estimate D2E/DX2                !
 ! A77   A(2,31,32)            109.9163         estimate D2E/DX2                !
 ! A78   A(2,31,33)            110.4868         estimate D2E/DX2                !
 ! A79   A(2,31,34)            109.8447         estimate D2E/DX2                !
 ! A80   A(32,31,33)           107.7602         estimate D2E/DX2                !
 ! A81   A(32,31,34)           108.4375         estimate D2E/DX2                !
 ! A82   A(33,31,34)           110.3464         estimate D2E/DX2                !
 ! A83   A(2,35,36)            110.3674         estimate D2E/DX2                !
 ! A84   A(2,35,37)            109.5228         estimate D2E/DX2                !
 ! A85   A(2,35,38)            110.0723         estimate D2E/DX2                !
 ! A86   A(36,35,37)           107.9914         estimate D2E/DX2                !
 ! A87   A(36,35,38)           109.7439         estimate D2E/DX2                !
 ! A88   A(37,35,38)           109.1036         estimate D2E/DX2                !
 ! A89   A(28,36,35)           135.8127         estimate D2E/DX2                !
 ! A90   A(6,38,35)            107.5709         estimate D2E/DX2                !
 ! A91   A(2,39,40)            110.933          estimate D2E/DX2                !
 ! A92   A(2,39,41)            109.8564         estimate D2E/DX2                !
 ! A93   A(2,39,42)            110.7565         estimate D2E/DX2                !
 ! A94   A(40,39,41)           107.1668         estimate D2E/DX2                !
 ! A95   A(40,39,42)           110.4779         estimate D2E/DX2                !
 ! A96   A(41,39,42)           107.5245         estimate D2E/DX2                !
 ! A97   A(3,43,24)            113.7261         estimate D2E/DX2                !
 ! A98   A(3,45,30)            110.6984         estimate D2E/DX2                !
 ! A99   L(3,1,6,2,-1)         181.9858         estimate D2E/DX2                !
 ! A100  L(3,1,6,2,-2)         178.8643         estimate D2E/DX2                !
 ! D1    D(3,1,2,31)           103.6393         estimate D2E/DX2                !
 ! D2    D(3,1,2,35)          -139.0602         estimate D2E/DX2                !
 ! D3    D(3,1,2,39)           -16.7984         estimate D2E/DX2                !
 ! D4    D(4,1,2,31)          -162.5325         estimate D2E/DX2                !
 ! D5    D(4,1,2,35)           -45.232          estimate D2E/DX2                !
 ! D6    D(4,1,2,39)            77.0298         estimate D2E/DX2                !
 ! D7    D(5,1,2,31)             9.2006         estimate D2E/DX2                !
 ! D8    D(5,1,2,35)           126.5011         estimate D2E/DX2                !
 ! D9    D(5,1,2,39)          -111.2371         estimate D2E/DX2                !
 ! D10   D(6,1,2,31)           -75.225          estimate D2E/DX2                !
 ! D11   D(6,1,2,35)            42.0755         estimate D2E/DX2                !
 ! D12   D(6,1,2,39)           164.3373         estimate D2E/DX2                !
 ! D13   D(2,1,3,43)           176.7003         estimate D2E/DX2                !
 ! D14   D(2,1,3,44)           -63.656          estimate D2E/DX2                !
 ! D15   D(2,1,3,45)            56.1749         estimate D2E/DX2                !
 ! D16   D(4,1,3,43)            60.8124         estimate D2E/DX2                !
 ! D17   D(4,1,3,44)          -179.5439         estimate D2E/DX2                !
 ! D18   D(4,1,3,45)           -59.713          estimate D2E/DX2                !
 ! D19   D(5,1,3,43)           -63.0444         estimate D2E/DX2                !
 ! D20   D(5,1,3,44)            56.5993         estimate D2E/DX2                !
 ! D21   D(5,1,3,45)           176.4302         estimate D2E/DX2                !
 ! D22   D(43,3,6,14)          -76.098          estimate D2E/DX2                !
 ! D23   D(43,3,6,38)          159.6503         estimate D2E/DX2                !
 ! D24   D(44,3,6,14)           42.8717         estimate D2E/DX2                !
 ! D25   D(44,3,6,38)          -81.38           estimate D2E/DX2                !
 ! D26   D(45,3,6,14)          163.3431         estimate D2E/DX2                !
 ! D27   D(45,3,6,38)           39.0914         estimate D2E/DX2                !
 ! D28   D(2,1,4,19)            78.3192         estimate D2E/DX2                !
 ! D29   D(2,1,4,23)          -161.8797         estimate D2E/DX2                !
 ! D30   D(2,1,4,27)           -41.3186         estimate D2E/DX2                !
 ! D31   D(3,1,4,19)           173.6376         estimate D2E/DX2                !
 ! D32   D(3,1,4,23)           -66.5614         estimate D2E/DX2                !
 ! D33   D(3,1,4,27)            53.9998         estimate D2E/DX2                !
 ! D34   D(5,1,4,19)           -93.0677         estimate D2E/DX2                !
 ! D35   D(5,1,4,23)            26.7333         estimate D2E/DX2                !
 ! D36   D(5,1,4,27)           147.2945         estimate D2E/DX2                !
 ! D37   D(6,1,4,19)            -8.6447         estimate D2E/DX2                !
 ! D38   D(6,1,4,23)           111.1563         estimate D2E/DX2                !
 ! D39   D(6,1,4,27)          -128.2825         estimate D2E/DX2                !
 ! D40   D(2,1,5,7)             73.6012         estimate D2E/DX2                !
 ! D41   D(2,1,5,11)           -48.8717         estimate D2E/DX2                !
 ! D42   D(2,1,5,15)          -165.9203         estimate D2E/DX2                !
 ! D43   D(3,1,5,7)            -22.1354         estimate D2E/DX2                !
 ! D44   D(3,1,5,11)          -144.6083         estimate D2E/DX2                !
 ! D45   D(3,1,5,15)            98.3431         estimate D2E/DX2                !
 ! D46   D(4,1,5,7)           -115.366          estimate D2E/DX2                !
 ! D47   D(4,1,5,11)           122.1611         estimate D2E/DX2                !
 ! D48   D(4,1,5,15)             5.1125         estimate D2E/DX2                !
 ! D49   D(6,1,5,7)            159.0097         estimate D2E/DX2                !
 ! D50   D(6,1,5,11)            36.5368         estimate D2E/DX2                !
 ! D51   D(6,1,5,15)           -80.5118         estimate D2E/DX2                !
 ! D52   D(2,1,6,14)           106.7901         estimate D2E/DX2                !
 ! D53   D(2,1,6,38)           -17.2895         estimate D2E/DX2                !
 ! D54   D(4,1,6,14)          -137.4467         estimate D2E/DX2                !
 ! D55   D(4,1,6,38)            98.4738         estimate D2E/DX2                !
 ! D56   D(5,1,6,14)           -13.4702         estimate D2E/DX2                !
 ! D57   D(5,1,6,38)          -137.5498         estimate D2E/DX2                !
 ! D58   D(1,2,31,32)         -179.9751         estimate D2E/DX2                !
 ! D59   D(1,2,31,33)          -61.1777         estimate D2E/DX2                !
 ! D60   D(1,2,31,34)           60.7903         estimate D2E/DX2                !
 ! D61   D(35,2,31,32)          61.9821         estimate D2E/DX2                !
 ! D62   D(35,2,31,33)        -179.2206         estimate D2E/DX2                !
 ! D63   D(35,2,31,34)         -57.2526         estimate D2E/DX2                !
 ! D64   D(39,2,31,32)         -56.1376         estimate D2E/DX2                !
 ! D65   D(39,2,31,33)          62.6597         estimate D2E/DX2                !
 ! D66   D(39,2,31,34)        -175.3723         estimate D2E/DX2                !
 ! D67   D(1,2,35,36)           67.9303         estimate D2E/DX2                !
 ! D68   D(1,2,35,37)         -173.3058         estimate D2E/DX2                !
 ! D69   D(1,2,35,38)          -53.3551         estimate D2E/DX2                !
 ! D70   D(31,2,35,36)        -175.9601         estimate D2E/DX2                !
 ! D71   D(31,2,35,37)         -57.1962         estimate D2E/DX2                !
 ! D72   D(31,2,35,38)          62.7544         estimate D2E/DX2                !
 ! D73   D(39,2,35,36)         -57.655          estimate D2E/DX2                !
 ! D74   D(39,2,35,37)          61.109          estimate D2E/DX2                !
 ! D75   D(39,2,35,38)        -178.9404         estimate D2E/DX2                !
 ! D76   D(1,2,39,40)           63.8394         estimate D2E/DX2                !
 ! D77   D(1,2,39,41)         -177.8579         estimate D2E/DX2                !
 ! D78   D(1,2,39,42)          -59.2223         estimate D2E/DX2                !
 ! D79   D(31,2,39,40)         -55.3076         estimate D2E/DX2                !
 ! D80   D(31,2,39,41)          62.995          estimate D2E/DX2                !
 ! D81   D(31,2,39,42)        -178.3693         estimate D2E/DX2                !
 ! D82   D(35,2,39,40)        -173.3517         estimate D2E/DX2                !
 ! D83   D(35,2,39,41)         -55.0491         estimate D2E/DX2                !
 ! D84   D(35,2,39,42)          63.5866         estimate D2E/DX2                !
 ! D85   D(1,3,43,24)          -42.5838         estimate D2E/DX2                !
 ! D86   D(44,3,43,24)        -167.738          estimate D2E/DX2                !
 ! D87   D(45,3,43,24)          83.5873         estimate D2E/DX2                !
 ! D88   D(1,3,45,30)           55.1289         estimate D2E/DX2                !
 ! D89   D(43,3,45,30)         -70.9427         estimate D2E/DX2                !
 ! D90   D(44,3,45,30)        -179.5822         estimate D2E/DX2                !
 ! D91   D(1,4,19,20)           59.0469         estimate D2E/DX2                !
 ! D92   D(1,4,19,21)          178.9719         estimate D2E/DX2                !
 ! D93   D(1,4,19,22)          -61.3809         estimate D2E/DX2                !
 ! D94   D(23,4,19,20)         -62.2407         estimate D2E/DX2                !
 ! D95   D(23,4,19,21)          57.6842         estimate D2E/DX2                !
 ! D96   D(23,4,19,22)         177.3314         estimate D2E/DX2                !
 ! D97   D(27,4,19,20)         179.7376         estimate D2E/DX2                !
 ! D98   D(27,4,19,21)         -60.3374         estimate D2E/DX2                !
 ! D99   D(27,4,19,22)          59.3098         estimate D2E/DX2                !
 ! D100  D(1,4,23,24)           58.315          estimate D2E/DX2                !
 ! D101  D(1,4,23,25)          177.1663         estimate D2E/DX2                !
 ! D102  D(1,4,23,26)          -64.1159         estimate D2E/DX2                !
 ! D103  D(19,4,23,24)         179.2608         estimate D2E/DX2                !
 ! D104  D(19,4,23,25)         -61.8878         estimate D2E/DX2                !
 ! D105  D(19,4,23,26)          56.83           estimate D2E/DX2                !
 ! D106  D(27,4,23,24)         -63.0094         estimate D2E/DX2                !
 ! D107  D(27,4,23,25)          55.8419         estimate D2E/DX2                !
 ! D108  D(27,4,23,26)         174.5597         estimate D2E/DX2                !
 ! D109  D(1,4,27,28)           56.8123         estimate D2E/DX2                !
 ! D110  D(1,4,27,29)          175.5392         estimate D2E/DX2                !
 ! D111  D(1,4,27,30)          -65.9705         estimate D2E/DX2                !
 ! D112  D(19,4,27,28)         -63.8884         estimate D2E/DX2                !
 ! D113  D(19,4,27,29)          54.8385         estimate D2E/DX2                !
 ! D114  D(19,4,27,30)         173.3288         estimate D2E/DX2                !
 ! D115  D(23,4,27,28)         178.4831         estimate D2E/DX2                !
 ! D116  D(23,4,27,29)         -62.79           estimate D2E/DX2                !
 ! D117  D(23,4,27,30)          55.7003         estimate D2E/DX2                !
 ! D118  D(1,5,7,8)           -176.5789         estimate D2E/DX2                !
 ! D119  D(1,5,7,9)            -58.1041         estimate D2E/DX2                !
 ! D120  D(1,5,7,10)            65.1058         estimate D2E/DX2                !
 ! D121  D(11,5,7,8)           -53.0974         estimate D2E/DX2                !
 ! D122  D(11,5,7,9)            65.3774         estimate D2E/DX2                !
 ! D123  D(11,5,7,10)         -171.4127         estimate D2E/DX2                !
 ! D124  D(15,5,7,8)            64.7911         estimate D2E/DX2                !
 ! D125  D(15,5,7,9)          -176.7341         estimate D2E/DX2                !
 ! D126  D(15,5,7,10)          -53.5242         estimate D2E/DX2                !
 ! D127  D(1,5,11,12)           70.1537         estimate D2E/DX2                !
 ! D128  D(1,5,11,13)         -171.1326         estimate D2E/DX2                !
 ! D129  D(1,5,11,14)          -51.332          estimate D2E/DX2                !
 ! D130  D(7,5,11,12)          -55.895          estimate D2E/DX2                !
 ! D131  D(7,5,11,13)           62.8187         estimate D2E/DX2                !
 ! D132  D(7,5,11,14)         -177.3807         estimate D2E/DX2                !
 ! D133  D(15,5,11,12)        -174.3289         estimate D2E/DX2                !
 ! D134  D(15,5,11,13)         -55.6152         estimate D2E/DX2                !
 ! D135  D(15,5,11,14)          64.1854         estimate D2E/DX2                !
 ! D136  D(1,5,15,16)          177.4505         estimate D2E/DX2                !
 ! D137  D(1,5,15,17)          -63.7047         estimate D2E/DX2                !
 ! D138  D(1,5,15,18)           58.4989         estimate D2E/DX2                !
 ! D139  D(7,5,15,16)          -58.6841         estimate D2E/DX2                !
 ! D140  D(7,5,15,17)           60.1607         estimate D2E/DX2                !
 ! D141  D(7,5,15,18)         -177.6357         estimate D2E/DX2                !
 ! D142  D(11,5,15,16)          59.179          estimate D2E/DX2                !
 ! D143  D(11,5,15,17)         178.0238         estimate D2E/DX2                !
 ! D144  D(11,5,15,18)         -59.7726         estimate D2E/DX2                !
 ! D145  D(1,6,14,11)           -9.3097         estimate D2E/DX2                !
 ! D146  D(38,6,14,11)         103.3508         estimate D2E/DX2                !
 ! D147  D(1,6,38,35)           -4.4909         estimate D2E/DX2                !
 ! D148  D(14,6,38,35)        -118.9736         estimate D2E/DX2                !
 ! D149  D(5,11,14,6)           37.546          estimate D2E/DX2                !
 ! D150  D(12,11,14,6)         -84.2118         estimate D2E/DX2                !
 ! D151  D(13,11,14,6)         157.4392         estimate D2E/DX2                !
 ! D152  D(4,23,24,43)         -32.2747         estimate D2E/DX2                !
 ! D153  D(25,23,24,43)       -152.6305         estimate D2E/DX2                !
 ! D154  D(26,23,24,43)         90.3078         estimate D2E/DX2                !
 ! D155  D(23,24,43,3)          25.5572         estimate D2E/DX2                !
 ! D156  D(4,27,28,36)         -15.6964         estimate D2E/DX2                !
 ! D157  D(29,27,28,36)       -135.8439         estimate D2E/DX2                !
 ! D158  D(30,27,28,36)        107.7135         estimate D2E/DX2                !
 ! D159  D(4,27,30,45)          58.7743         estimate D2E/DX2                !
 ! D160  D(28,27,30,45)        -64.3313         estimate D2E/DX2                !
 ! D161  D(29,27,30,45)        178.9433         estimate D2E/DX2                !
 ! D162  D(27,28,36,35)        -30.3254         estimate D2E/DX2                !
 ! D163  D(27,30,45,3)         -59.211          estimate D2E/DX2                !
 ! D164  D(2,35,36,28)         -29.9553         estimate D2E/DX2                !
 ! D165  D(37,35,36,28)       -149.6487         estimate D2E/DX2                !
 ! D166  D(38,35,36,28)         91.5251         estimate D2E/DX2                !
 ! D167  D(2,35,38,6)           36.2555         estimate D2E/DX2                !
 ! D168  D(36,35,38,6)         -85.4018         estimate D2E/DX2                !
 ! D169  D(37,35,38,6)         156.4599         estimate D2E/DX2                !
 --------------------------------------------------------------------------------
 Trust Radius=3.00D-01 FncErr=1.00D-07 GrdErr=1.00D-06 EigMax=2.50D+02 EigMin=1.00D-04
 Number of steps in this run=    270 maximum allowed number of steps=    270.
 GradGradGradGradGradGradGradGradGradGradGradGradGradGradGradGradGradGrad

                          Input orientation:                          
 ---------------------------------------------------------------------
 Center     Atomic      Atomic             Coordinates (Angstroms)
 Number     Number       Type             X           Y           Z
 ---------------------------------------------------------------------
      1         26           0       -2.609169    1.958201   -0.093093
      2          7           0       -3.568188    4.017142   -0.235299
      3          7           0       -2.575774    1.659036   -2.218303
      4          7           0       -0.312397    1.934286    0.014535
      5          7           0       -3.925597    0.092707    0.222036
      6          8           0       -2.639495    2.118383    1.502186
      7          6           0       -4.696759   -0.324943   -0.971688
      8          1           0       -5.344126   -1.183945   -0.719253
      9          1           0       -5.350383    0.490170   -1.316321
     10          1           0       -4.028311   -0.651427   -1.780420
     11          6           0       -4.878645    0.319661    1.338437
     12          1           0       -5.641972    1.051099    1.044914
     13          1           0       -5.387721   -0.629877    1.580490
     14          1           0       -4.343229    0.676075    2.227469
     15          6           0       -2.999958   -0.997593    0.611780
     16          1           0       -3.570852   -1.919341    0.825131
     17          1           0       -2.299050   -1.219728   -0.205110
     18          1           0       -2.452789   -0.715276    1.521576
     19          6           0        0.140732    2.275720    1.388322
     20          1           0       -0.265984    1.559399    2.113017
     21          1           0        1.243804    2.241720    1.427491
     22          1           0       -0.191946    3.284828    1.661168
     23          6           0        0.215771    0.592442   -0.329369
     24          1           0       -0.102448    0.283878   -1.335959
     25          1           0        1.320611    0.609666   -0.323008
     26          1           0       -0.112145   -0.147151    0.411789
     27          6           0        0.254197    2.929024   -0.926908
     28          1           0       -0.139544    3.932035   -0.715136
     29          1           0        1.352608    2.971082   -0.814748
     30          1           0        0.045680    2.653245   -1.969912
     31          6           0       -4.994230    3.847500    0.134047
     32          1           0       -5.514732    4.820656    0.082335
     33          1           0       -5.494306    3.161880   -0.565932
     34          1           0       -5.070471    3.467281    1.160506
     35          6           0       -2.932396    4.933018    0.745969
     36          1           0       -1.892041    5.137207    0.459802
     37          1           0       -3.476948    5.893706    0.760752
     38          1           0       -2.960601    4.488774    1.748881
     39          6           0       -3.489971    4.635202   -1.579763
     40          1           0       -4.052830    4.044989   -2.316650
     41          1           0       -3.941236    5.643338   -1.556151
     42          1           0       -2.443026    4.748408   -1.896311
     43          1           0       -2.128173    0.786910   -2.518922
     44          1           0       -3.504582    1.621691   -2.649998
     45          1           0       -2.086303    2.388292   -2.745984
 ---------------------------------------------------------------------
                    Distance matrix (angstroms):
                    1          2          3          4          5
     1  Fe   0.000000
     2  N    2.275781   0.000000
     3  N    2.146423   3.236951   0.000000
     4  N    2.299417   3.873097   3.191270   0.000000
     5  N    2.304855   3.967126   3.198541   4.060749   0.000000
     6  O    1.603588   2.736167   3.749280   2.768101   2.719597
     7  C    3.216008   4.546388   3.160506   5.029849   1.481249
     8  H    4.212499   5.517198   4.241870   5.964906   2.127931
     9  H    3.341505   4.096872   3.142972   5.407213   2.134135
    10  H    3.416313   4.939094   2.764027   4.869886   2.138718
    11  C    3.143980   4.226737   4.443820   5.020991   1.485315
    12  H    3.363895   3.838872   4.518821   5.499643   2.131100
    13  H    4.149624   5.310610   5.251380   5.897971   2.122577
    14  H    3.167936   4.222398   4.884158   4.767366   2.129905
    15  C    3.063704   5.117421   3.904738   4.021890   1.482384
    16  H    4.099183   6.030452   4.801818   5.111266   2.130236
    17  H    3.194989   5.388546   3.523749   3.734011   2.133212
    18  H    3.127154   5.169768   4.431611   3.724598   2.123865
    19  C    3.139644   4.407356   4.557132   1.486336   4.760336
    20  H    3.242912   4.739160   4.909724   2.132210   4.372615
    21  H    4.151862   5.391870   5.312298   2.124317   5.726612
    22  H    3.268079   3.941051   4.834887   2.133043   5.118680
    23  C    3.146651   5.104485   3.535310   1.482490   4.207697
    24  H    3.260632   5.211532   2.964276   2.142839   4.132840
    25  H    4.161079   5.959777   4.458154   2.129617   5.299719
    26  H    3.304927   5.450164   4.031025   2.128448   3.825697
    27  C    3.136337   4.033975   3.359956   1.482177   5.180294
    28  H    3.222112   3.463104   3.655305   2.133846   5.472927
    29  H    4.152396   5.064014   4.373056   2.129530   6.100771
    30  H    3.324719   4.234281   2.814635   2.140830   5.208842
    31  C    3.051157   1.482832   4.021424   5.059074   3.904893
    32  H    4.082489   2.129685   4.891447   5.949791   4.989826
    33  H    3.161714   2.133242   3.675146   5.356875   3.535755
    34  H    3.147513   2.123081   4.572703   5.128605   3.684998
    35  C    3.107738   1.485243   4.430919   4.048677   4.968859
    36  H    3.305457   2.132412   4.442681   3.598922   5.444159
    37  H    4.119501   2.126484   5.255408   5.123303   5.843209
    38  H    3.149631   2.128043   4.888155   4.067720   4.752671
    39  C    3.186273   1.481789   3.178215   4.464718   4.906171
    40  H    3.373877   2.137212   2.807871   4.886750   4.699111
    41  H    4.182724   2.127987   4.263519   5.421494   5.828525
    42  H    3.326327   2.135345   3.108942   4.013751   5.325501
    43  H    2.736408   4.209867   1.025340   3.321433   3.350448
    44  H    2.729976   3.401912   1.024910   4.169832   3.280796
    45  H    2.737919   3.339562   1.024619   3.312602   4.178739
                    6          7          8          9         10
     6  O    0.000000
     7  C    4.040078   0.000000
     8  H    4.811984   1.104849   0.000000
     9  H    4.236033   1.100184   1.777411   0.000000
    10  H    4.513996   1.098846   1.772292   1.807348   0.000000
    11  C    2.876805   2.405260   2.590674   2.701731   3.375404
    12  H    3.219171   2.617939   2.862939   2.444401   3.672194
    13  H    3.887391   2.661583   2.365948   3.106029   3.625490
    14  H    2.347125   3.370701   3.625554   3.688817   4.233746
    15  C    3.260684   2.416395   2.702129   3.384599   2.626778
    16  H    4.198696   2.652985   2.463824   3.682158   2.933559
    17  H    3.764804   2.671571   3.088383   3.670037   2.407262
    18  H    2.839869   3.377000   3.687926   4.231171   3.659170
    19  C    2.787002   5.977827   6.818711   6.376176   5.999170
    20  H    2.513788   5.718209   6.429247   6.225329   5.848223
    21  H    3.885975   6.901747   7.729457   7.353892   6.815878
    22  H    2.715946   6.344739   7.223662   6.579136   6.485085
    23  C    3.719628   5.038563   5.849788   5.653902   4.654567
    24  H    4.225764   4.648769   5.478140   5.252025   4.060141
    25  H    4.614109   6.123971   6.913232   6.745599   5.685541
    26  H    3.564984   4.792109   5.452323   5.552628   4.516241
    27  C    3.864077   5.924717   6.949882   6.124620   5.646945
    28  H    3.802053   6.241465   7.298009   6.273811   6.104544
    29  H    4.693843   6.890809   7.881600   7.164956   6.558154
    30  H    4.421731   5.688302   6.733363   5.850091   5.249206
    31  C    3.225899   4.326710   5.115270   3.674517   4.983827
    32  H    4.193476   5.315753   6.060271   4.553719   5.968500
    33  H    3.676404   3.599813   4.351121   2.778818   4.262093
    34  H    2.801056   4.366563   5.024170   3.882810   5.167098
    35  C    2.929134   5.805986   6.736509   5.462472   6.226532
    36  H    3.280023   6.304815   7.298221   6.058853   6.564338
    37  H    3.937527   6.569694   7.467926   6.084586   7.042750
    38  H    2.404729   5.795482   6.629677   5.576321   6.325949
    39  C    4.068918   5.140927   6.167726   4.551025   5.317755
    40  H    4.504757   4.617345   5.617906   3.914210   4.726993
    41  H    4.844921   6.044236   7.019992   5.347743   6.299361
    42  H    4.301792   5.627889   6.707806   5.188613   5.628923
    43  H    4.266565   3.198091   4.179166   3.452092   2.494939
    44  H    4.270329   2.833266   3.870826   2.542836   2.489483
    45  H    4.292531   4.162241   5.242321   4.037452   3.734113
                   11         12         13         14         15
    11  C    0.000000
    12  H    1.097190   0.000000
    13  H    1.104251   1.782461   0.000000
    14  H    1.097305   1.796055   1.793058   0.000000
    15  C    2.406793   3.371199   2.602888   2.686260   0.000000
    16  H    2.643281   3.627858   2.352509   3.049476   1.105015
    17  H    3.377361   4.230171   3.616100   3.700024   1.099057
    18  H    2.643750   3.676707   2.936765   2.451103   1.098556
    19  C    5.387281   5.920920   6.248457   4.834143   4.602340
    20  H    4.838757   5.504585   5.595418   4.173402   4.033179
    21  H    6.417681   6.998418   7.228181   5.857145   5.400745
    22  H    5.555314   5.922170   6.505959   4.935528   5.227358
    23  C    5.367407   6.034250   6.044894   5.227705   3.708758
    24  H    5.474096   6.078117   6.105304   5.553023   3.719062
    25  H    6.424584   7.109405   7.082478   6.211958   4.703661
    26  H    4.878126   5.693473   5.424997   4.677229   3.017070
    27  C    6.187619   6.494574   7.126294   6.013501   5.326857
    28  H    6.302816   6.455562   7.322862   6.077102   5.851829
    29  H    7.105966   7.487912   8.008502   6.853080   6.060544
    30  H    6.374932   6.633659   7.273657   6.386684   5.410144
    31  C    3.729553   3.011496   4.721646   3.855406   5.261205
    32  H    4.716074   3.892597   5.654106   4.811608   6.360536
    33  H    3.476186   2.659328   4.358430   3.912454   4.990991
    34  H    3.158476   2.485540   4.130828   3.075406   4.952093
    35  C    5.042020   4.743466   6.137658   4.723013   5.932514
    36  H    5.735900   5.576793   6.836299   5.388383   6.235892
    37  H    5.776543   5.312148   6.846909   5.488659   6.909393
    38  H    4.607479   4.416212   5.667438   4.083795   5.603104
    39  C    5.391493   4.936176   6.427263   5.558575   6.063939
    40  H    5.283910   4.773768   6.230891   5.664180   5.925527
    41  H    6.131795   5.544971   7.161289   6.257082   7.048964
    42  H    6.000803   5.705625   7.048782   6.099199   6.294221
    43  H    4.760529   5.011737   5.425598   5.238987   3.707527
    44  H    4.414855   4.306552   5.149058   5.038571   4.213608
    45  H    5.362733   5.366729   6.223109   5.723691   4.855261
                   16         17         18         19         20
    16  H    0.000000
    17  H    1.779982   0.000000
    18  H    1.784621   1.805423   0.000000
    19  C    5.629527   4.550793   3.961081   0.000000
    20  H    4.968142   4.150978   3.210306   1.097140   0.000000
    21  H    6.392040   5.215249   4.734710   1.104291   1.793033
    22  H    6.260938   5.311676   4.596926   1.097004   1.785148
    23  C    4.688330   3.102213   3.501048   2.406142   2.670645
    24  H    4.642662   2.892181   3.832482   3.383530   3.680915
    25  H    5.624990   4.057404   4.404147   2.663926   3.058348
    26  H    3.908217   2.512676   2.651982   2.624475   2.414572
    27  C    6.419290   4.924653   5.157884   2.408313   3.374553
    28  H    6.955925   5.609301   5.652564   2.691927   3.693757
    29  H    7.130631   5.591883   5.790396   2.608772   3.631046
    30  H    6.465301   4.859239   5.457084   3.380724   4.238389
    31  C    5.979971   5.749419   5.403988   5.514665   5.613202
    32  H    7.053933   6.849049   6.487947   6.337710   6.504523
    33  H    5.608345   5.434919   5.351715   6.029763   6.089340
    34  H    5.601520   5.613710   4.947364   5.350547   5.256461
    35  C    6.882493   6.257952   5.721435   4.113145   4.512192
    36  H    7.262695   6.404560   5.974392   3.630761   4.263554
    37  H    7.813877   7.274701   6.731003   5.154733   5.561037
    38  H    6.503050   6.069821   5.233706   3.826993   3.996848
    39  C    6.982270   6.130919   6.270699   5.249637   5.787165
    40  H    6.758426   5.937305   6.320778   5.868824   6.335638
    41  H    7.937367   7.184968   7.219408   6.055843   6.606726
    42  H    7.289521   6.204800   6.444679   4.855801   5.566327
    43  H    4.537379   3.067494   4.322911   4.757209   5.051668
    44  H    4.961836   3.937569   4.895887   5.479425   5.760096
    45  H    5.788994   4.418044   5.289472   4.697323   5.254571
                   21         22         23         24         25
    21  H    0.000000
    22  H    1.789988   0.000000
    23  C    2.619833   3.373042   0.000000
    24  H    3.644475   4.242226   1.099863   0.000000
    25  H    2.394524   3.658042   1.104993   1.776881   0.000000
    26  H    2.928644   3.653190   1.097197   1.800140   1.779182
    27  C    2.644788   2.650241   2.412083   2.700244   2.623234
    28  H    3.059684   2.463421   3.380525   3.700790   3.650199
    29  H    2.360390   2.935003   2.680657   3.099986   2.412285
    30  H    3.625907   3.693251   2.639549   2.457181   2.917869
    31  C    6.569977   5.070565   6.160703   6.228150   7.111237
    32  H    7.357864   5.760515   7.133439   7.203244   8.038573
    33  H    7.086787   5.752401   6.266016   6.160192   7.281202
    34  H    6.437651   4.907541   6.199095   6.406844   7.156305
    35  C    5.014798   3.326287   5.468812   5.827309   6.158097
    36  H    4.376504   2.786559   5.071543   5.475601   5.606474
    37  H    6.005584   4.290482   6.551941   6.874127   7.218877
    38  H    4.778029   3.020369   5.439657   5.946968   6.137506
    39  C    6.097619   4.817065   5.624937   5.519853   6.397349
    40  H    6.732362   5.595293   5.838692   5.541952   6.682060
    41  H    6.881698   5.474567   6.655618   6.596104   7.385495
    42  H    5.560923   4.457026   5.176540   5.071916   5.811147
    43  H    5.390814   5.240393   3.213415   2.399167   4.092379
    44  H    6.289477   5.685572   4.503965   3.884708   5.451749
    45  H    5.341254   4.880098   3.790073   3.217516   4.543279
                   26         27         28         29         30
    26  H    0.000000
    27  C    3.374784   0.000000
    28  H    4.232076   1.098140   0.000000
    29  H    3.656948   1.104923   1.777603   0.000000
    30  H    3.679623   1.098813   1.801131   1.772988   0.000000
    31  C    6.314201   5.432790   4.929121   6.476934   5.590490
    32  H    7.346808   6.154461   5.506201   7.168406   6.310909
    33  H    6.393222   5.764531   5.411920   6.854090   5.737710
    34  H    6.181399   5.744485   5.296043   6.738233   6.052865
    35  C    5.820104   4.119331   3.307086   4.964503   4.630584
    36  H    5.576269   3.377184   2.429849   4.104184   3.978485
    37  H    6.923556   5.055589   4.143026   5.860763   5.510537
    38  H    5.602974   4.464033   3.786780   5.242075   5.122140
    39  C    6.184407   4.166060   3.530918   5.177366   4.072002
    40  H    6.367685   4.661249   4.229824   5.712070   4.342230
    41  H    7.215573   5.036378   4.253084   5.976238   5.000735
    42  H    5.892947   3.394836   2.714345   4.328453   3.254041
    43  H    3.677758   3.577548   4.135227   4.448669   2.917234
    44  H    4.900201   4.336655   4.517174   5.364820   3.759120
    45  H    4.505253   3.013199   3.208949   3.986907   2.284259
                   31         32         33         34         35
    31  C    0.000000
    32  H    1.104821   0.000000
    33  H    1.100055   1.781069   0.000000
    34  H    1.097268   1.786461   1.803744   0.000000
    35  C    2.409140   2.668613   3.379556   2.625184   0.000000
    36  H    3.375357   3.656033   4.234426   3.658149   1.098145
    37  H    2.623330   2.400885   3.645915   2.930300   1.104390
    38  H    2.674802   3.067753   3.679493   2.416854   1.097261
    39  C    2.412553   2.626142   2.686241   3.372105   2.410107
    40  H    2.632708   2.914437   2.433670   3.668781   3.379882
    41  H    2.681529   2.416057   3.090339   3.659320   2.611909
    42  H    3.382696   3.654537   3.687450   4.229525   2.693549
    43  H    4.961828   5.874217   4.559112   5.420304   5.338211
    44  H    3.863183   4.662588   3.267188   4.514217   4.777539
    45  H    4.345101   5.066548   4.118926   5.032906   4.402867
                   36         37         38         39         40
    36  H    0.000000
    37  H    1.781795   0.000000
    38  H    1.795553   1.793557   0.000000
    39  C    2.639169   2.657445   3.373654   0.000000
    40  H    3.683834   3.635904   4.233019   1.099165   0.000000
    41  H    2.918807   2.376192   3.635643   1.104779   1.773565
    42  H    2.450718   3.072570   3.690897   1.099596   1.806364
    43  H    5.277655   6.217300   5.710593   4.188778   3.789498
    44  H    4.962862   5.466634   5.278846   3.197947   2.506805
    45  H    4.227450   5.149662   5.037880   2.894643   2.606952
                   41         42         43         44         45
    41  H    0.000000
    42  H    1.777988   0.000000
    43  H    5.272477   4.022467   0.000000
    44  H    4.190562   3.386931   1.615098   0.000000
    45  H    3.930878   2.533642   1.617941   1.615056   0.000000
 Stoichiometry    C9H30FeN4O(2+,5)
 Framework group  C1[X(C9H30FeN4O)]
 Deg. of freedom   129
 Full point group                 C1      NOp   1
 Largest Abelian subgroup         C1      NOp   1
 Largest concise Abelian subgroup C1      NOp   1
                         Standard orientation:                         
 ---------------------------------------------------------------------
 Center     Atomic      Atomic             Coordinates (Angstroms)
 Number     Number       Type             X           Y           Z
 ---------------------------------------------------------------------
      1         26           0        0.024939   -0.016337    0.028949
      2          7           0       -0.608596    2.167872   -0.054956
      3          7           0        0.033789   -0.089672    2.174101
      4          7           0       -1.681346   -1.553585   -0.084101
      5          7           0        2.259251   -0.573160   -0.071835
      6          8           0        0.064320   -0.006048   -1.574122
      7          6           0        3.022316   -0.281748    1.163847
      8          1           0        4.090330   -0.519775    1.010934
      9          1           0        2.955967    0.786568    1.418220
     10          1           0        2.670656   -0.900178    2.001308
     11          6           0        2.913687    0.132919   -1.202907
     12          1           0        2.988522    1.206571   -0.989608
     13          1           0        3.935890   -0.263020   -1.335965
     14          1           0        2.345062   -0.024546   -2.128082
     15          6           0        2.303910   -2.030128   -0.341483
     16          1           0        3.352342   -2.362266   -0.448870
     17          1           0        1.859006   -2.591100    0.492362
     18          1           0        1.776417   -2.252500   -1.279101
     19          6           0       -2.141376   -1.707532   -1.489044
     20          1           0       -1.311977   -2.035355   -2.128064
     21          1           0       -2.947097   -2.461670   -1.528392
     22          1           0       -2.529316   -0.755193   -1.871107
     23          6           0       -1.228680   -2.877905    0.404823
     24          1           0       -0.863853   -2.817906    1.440680
     25          1           0       -2.071690   -3.592179    0.392378
     26          1           0       -0.442184   -3.276320   -0.248271
     27          6           0       -2.829534   -1.104802    0.738763
     28          1           0       -3.172134   -0.111906    0.418306
     29          1           0       -3.675889   -1.804846    0.618440
     30          1           0       -2.571528   -1.089444    1.806746
     31          6           0        0.604482    2.948733   -0.397720
     32          1           0        0.356857    4.024050   -0.452527
     33          1           0        1.375923    2.821057    0.376036
     34          1           0        0.988289    2.630739   -1.375253
     35          6           0       -1.611328    2.355868   -1.134369
     36          1           0       -2.550132    1.847788   -0.876639
     37          1           0       -1.827641    3.432263   -1.253780
     38          1           0       -1.223666    1.960247   -2.081566
     39          6           0       -1.173433    2.688518    1.212162
     40          1           0       -0.419834    2.676582    2.012230
     41          1           0       -1.490343    3.738374    1.078346
     42          1           0       -2.060069    2.110437    1.510173
     43          1           0        0.243560   -1.012756    2.568099
     44          1           0        0.725035    0.528315    2.610806
     45          1           0       -0.851431    0.177403    2.615576
 ---------------------------------------------------------------------
 Rotational constants (GHZ):           0.5112851           0.4812468           0.3423611
 General basis read from cards:  (6D, 7F)
 ======================================================================================================
                                       Pseudopotential Parameters
 ======================================================================================================
  Center     Atomic      Valence      Angular      Power
  Number     Number     Electrons     Momentum     of R      Exponent        Coefficient   SO-Coeffient
 ======================================================================================================
    1         26           16
                                      D and up 
                                                     1      392.6149787      -10.00000000    0.00000000
                                                     2       71.1756979      -63.26675180    0.00000000
                                                     2       17.7320281      -10.96133380    0.00000000
                                      S - D
                                                     0      126.0571895        3.00000000    0.00000000
                                                     1      138.1264251       18.17291370    0.00000000
                                                     2       54.2098858      339.12311640    0.00000000
                                                     2        9.2837966      317.10680120    0.00000000
                                                     2        8.6289082     -207.34216490    0.00000000
                                      P - D
                                                     0       83.1759490        5.00000000    0.00000000
                                                     1      106.0559938        5.95359300    0.00000000
                                                     2       42.8284937      294.26655270    0.00000000
                                                     2        8.7701805      154.42446350    0.00000000
                                                     2        8.0397818      -95.31642490    0.00000000
    2          7
                                   No pseudopotential on this center.
    3          7
                                   No pseudopotential on this center.
    4          7
                                   No pseudopotential on this center.
    5          7
                                   No pseudopotential on this center.
    6          8
                                   No pseudopotential on this center.
    7          6
                                   No pseudopotential on this center.
    8          1
                                   No pseudopotential on this center.
    9          1
                                   No pseudopotential on this center.
   10          1
                                   No pseudopotential on this center.
   11          6
                                   No pseudopotential on this center.
   12          1
                                   No pseudopotential on this center.
   13          1
                                   No pseudopotential on this center.
   14          1
                                   No pseudopotential on this center.
   15          6
                                   No pseudopotential on this center.
   16          1
                                   No pseudopotential on this center.
   17          1
                                   No pseudopotential on this center.
   18          1
                                   No pseudopotential on this center.
   19          6
                                   No pseudopotential on this center.
   20          1
                                   No pseudopotential on this center.
   21          1
                                   No pseudopotential on this center.
   22          1
                                   No pseudopotential on this center.
   23          6
                                   No pseudopotential on this center.
   24          1
                                   No pseudopotential on this center.
   25          1
                                   No pseudopotential on this center.
   26          1
                                   No pseudopotential on this center.
   27          6
                                   No pseudopotential on this center.
   28          1
                                   No pseudopotential on this center.
   29          1
                                   No pseudopotential on this center.
   30          1
                                   No pseudopotential on this center.
   31          6
                                   No pseudopotential on this center.
   32          1
                                   No pseudopotential on this center.
   33          1
                                   No pseudopotential on this center.
   34          1
                                   No pseudopotential on this center.
   35          6
                                   No pseudopotential on this center.
   36          1
                                   No pseudopotential on this center.
   37          1
                                   No pseudopotential on this center.
   38          1
                                   No pseudopotential on this center.
   39          6
                                   No pseudopotential on this center.
   40          1
                                   No pseudopotential on this center.
   41          1
                                   No pseudopotential on this center.
   42          1
                                   No pseudopotential on this center.
   43          1
                                   No pseudopotential on this center.
   44          1
                                   No pseudopotential on this center.
   45          1
                                   No pseudopotential on this center.
 ======================================================================================================
 There are   384 symmetry adapted cartesian basis functions of A   symmetry.
 There are   384 symmetry adapted basis functions of A   symmetry.
   384 basis functions,   654 primitive gaussians,   384 cartesian basis functions
    69 alpha electrons       65 beta electrons
       nuclear repulsion energy      1450.1600555987 Hartrees.
 NAtoms=   45 NActive=   45 NUniq=   45 SFac= 1.00D+00 NAtFMM=   60 NAOKFM=F Big=F
 Integral buffers will be    131072 words long.
 Raffenetti 2 integral format.
 Two-electron integral symmetry is turned on.
 Nuclear repulsion after empirical dispersion term =     1450.1126350795 Hartrees.
 One-electron integrals computed using PRISM.
   1 Symmetry operations used in ECPInt.
 ECPInt:  NShTT=   11935 NPrTT=   52038 LenC2=   11054 LenP2D=   31872.
 LDataN:  DoStor=T MaxTD1= 4 Len=   56
 NBasis=   384 RedAO= T EigKep=  3.95D-03  NBF=   384
 NBsUse=   384 1.00D-06 EigRej= -1.00D+00 NBFU=   384
 ExpMin= 2.20D-02 ExpMax= 5.48D+03 ExpMxC= 8.25D+02 IAcc=3 IRadAn=         5 AccDes= 0.00D+00
 Harris functional with IExCor= 4639 and IRadAn=      -1 diagonalized for initial guess.
 HarFok:  IExCor= 4639 AccDes= 0.00D+00 IRadAn=        -1 IDoV= 1 UseB2=F ITyADJ=14
 ICtDFT=  3500011 ScaDFX=  1.000000  1.000000  1.000000  1.000000
 FoFCou: FMM=F IPFlag=           0 FMFlag=      100000 FMFlg1=           0
         NFxFlg=           0 DoJE=T BraDBF=F KetDBF=T FulRan=T
         wScrn=  0.000000 ICntrl=       500 IOpCl=  0 I1Cent=   200000004 NGrid=           0
         NMat0=    1 NMatS0=      1 NMatT0=    0 NMatD0=    1 NMtDS0=    0 NMtDT0=    0
 Petite list used in FoFCou.
 Initial guess <Sx>= 0.0000 <Sy>= 0.0000 <Sz>= 2.0000 <S**2>= 6.0000 S= 2.0000
 Requested convergence on RMS density matrix=1.00D-08 within 128 cycles.
 Requested convergence on MAX density matrix=1.00D-06.
 Requested convergence on             energy=1.00D-06.
 No special actions if energy rises.
 EnCoef did   100 forward-backward iterations
 Restarting incremental Fock formation.
 SCF Done:  E(UwB97XD) =  -777.970425334     A.U. after   32 cycles
            NFock= 32  Conv=0.44D-08     -V/T= 2.0841
 <Sx>= 0.0000 <Sy>= 0.0000 <Sz>= 2.0000 <S**2>= 6.0800 S= 2.0160
 <L.S>=  0.00000000000    
 Annihilation of the first spin contaminant:
 S**2 before annihilation     6.0800,   after     6.0009

 **********************************************************************

            Population analysis using the SCF density.

 **********************************************************************

 Orbital symmetries:
 Alpha Orbitals:
       Occupied  (A) (A) (A) (A) (A) (A) (A) (A) (A) (A) (A) (A)
                 (A) (A) (A) (A) (A) (A) (A) (A) (A) (A) (A) (A)
                 (A) (A) (A) (A) (A) (A) (A) (A) (A) (A) (A) (A)
                 (A) (A) (A) (A) (A) (A) (A) (A) (A) (A) (A) (A)
                 (A) (A) (A) (A) (A) (A) (A) (A) (A) (A) (A) (A)
                 (A) (A) (A) (A) (A) (A) (A) (A) (A)
       Virtual   (A) (A) (A) (A) (A) (A) (A) (A) (A) (A) (A) (A)
                 (A) (A) (A) (A) (A) (A) (A) (A) (A) (A) (A) (A)
                 (A) (A) (A) (A) (A) (A) (A) (A) (A) (A) (A) (A)
                 (A) (A) (A) (A) (A) (A) (A) (A) (A) (A) (A) (A)
                 (A) (A) (A) (A) (A) (A) (A) (A) (A) (A) (A) (A)
                 (A) (A) (A) (A) (A) (A) (A) (A) (A) (A) (A) (A)
                 (A) (A) (A) (A) (A) (A) (A) (A) (A) (A) (A) (A)
                 (A) (A) (A) (A) (A) (A) (A) (A) (A) (A) (A) (A)
                 (A) (A) (A) (A) (A) (A) (A) (A) (A) (A) (A) (A)
                 (A) (A) (A) (A) (A) (A) (A) (A) (A) (A) (A) (A)
                 (A) (A) (A) (A) (A) (A) (A) (A) (A) (A) (A) (A)
                 (A) (A) (A) (A) (A) (A) (A) (A) (A) (A) (A) (A)
                 (A) (A) (A) (A) (A) (A) (A) (A) (A) (A) (A) (A)
                 (A) (A) (A) (A) (A) (A) (A) (A) (A) (A) (A) (A)
                 (A) (A) (A) (A) (A) (A) (A) (A) (A) (A) (A) (A)
                 (A) (A) (A) (A) (A) (A) (A) (A) (A) (A) (A) (A)
                 (A) (A) (A) (A) (A) (A) (A) (A) (A) (A) (A) (A)
                 (A) (A) (A) (A) (A) (A) (A) (A) (A) (A) (A) (A)
                 (A) (A) (A) (A) (A) (A) (A) (A) (A) (A) (A) (A)
                 (A) (A) (A) (A) (A) (A) (A) (A) (A) (A) (A) (A)
                 (A) (A) (A) (A) (A) (A) (A) (A) (A) (A) (A) (A)
                 (A) (A) (A) (A) (A) (A) (A) (A) (A) (A) (A) (A)
                 (A) (A) (A) (A) (A) (A) (A) (A) (A) (A) (A) (A)
                 (A) (A) (A) (A) (A) (A) (A) (A) (A) (A) (A) (A)
                 (A) (A) (A) (A) (A) (A) (A) (A) (A) (A) (A) (A)
                 (A) (A) (A) (A) (A) (A) (A) (A) (A) (A) (A) (A)
                 (A) (A) (A)
 Beta  Orbitals:
       Occupied  (A) (A) (A) (A) (A) (A) (A) (A) (A) (A) (A) (A)
                 (A) (A) (A) (A) (A) (A) (A) (A) (A) (A) (A) (A)
                 (A) (A) (A) (A) (A) (A) (A) (A) (A) (A) (A) (A)
                 (A) (A) (A) (A) (A) (A) (A) (A) (A) (A) (A) (A)
                 (A) (A) (A) (A) (A) (A) (A) (A) (A) (A) (A) (A)
                 (A) (A) (A) (A) (A)
       Virtual   (A) (A) (A) (A) (A) (A) (A) (A) (A) (A) (A) (A)
                 (A) (A) (A) (A) (A) (A) (A) (A) (A) (A) (A) (A)
                 (A) (A) (A) (A) (A) (A) (A) (A) (A) (A) (A) (A)
                 (A) (A) (A) (A) (A) (A) (A) (A) (A) (A) (A) (A)
                 (A) (A) (A) (A) (A) (A) (A) (A) (A) (A) (A) (A)
                 (A) (A) (A) (A) (A) (A) (A) (A) (A) (A) (A) (A)
                 (A) (A) (A) (A) (A) (A) (A) (A) (A) (A) (A) (A)
                 (A) (A) (A) (A) (A) (A) (A) (A) (A) (A) (A) (A)
                 (A) (A) (A) (A) (A) (A) (A) (A) (A) (A) (A) (A)
                 (A) (A) (A) (A) (A) (A) (A) (A) (A) (A) (A) (A)
                 (A) (A) (A) (A) (A) (A) (A) (A) (A) (A) (A) (A)
                 (A) (A) (A) (A) (A) (A) (A) (A) (A) (A) (A) (A)
                 (A) (A) (A) (A) (A) (A) (A) (A) (A) (A) (A) (A)
                 (A) (A) (A) (A) (A) (A) (A) (A) (A) (A) (A) (A)
                 (A) (A) (A) (A) (A) (A) (A) (A) (A) (A) (A) (A)
                 (A) (A) (A) (A) (A) (A) (A) (A) (A) (A) (A) (A)
                 (A) (A) (A) (A) (A) (A) (A) (A) (A) (A) (A) (A)
                 (A) (A) (A) (A) (A) (A) (A) (A) (A) (A) (A) (A)
                 (A) (A) (A) (A) (A) (A) (A) (A) (A) (A) (A) (A)
                 (A) (A) (A) (A) (A) (A) (A) (A) (A) (A) (A) (A)
                 (A) (A) (A) (A) (A) (A) (A) (A) (A) (A) (A) (A)
                 (A) (A) (A) (A) (A) (A) (A) (A) (A) (A) (A) (A)
                 (A) (A) (A) (A) (A) (A) (A) (A) (A) (A) (A) (A)
                 (A) (A) (A) (A) (A) (A) (A) (A) (A) (A) (A) (A)
                 (A) (A) (A) (A) (A) (A) (A) (A) (A) (A) (A) (A)
                 (A) (A) (A) (A) (A) (A) (A) (A) (A) (A) (A) (A)
                 (A) (A) (A) (A) (A) (A) (A)
 The electronic state is 5-A.
 Alpha  occ. eigenvalues --  -19.59629 -14.79301 -14.78850 -14.78757 -14.78740
 Alpha  occ. eigenvalues --  -10.59165 -10.59158 -10.59093 -10.58838 -10.58477
 Alpha  occ. eigenvalues --  -10.58448 -10.57652 -10.57286 -10.57127  -4.08055
 Alpha  occ. eigenvalues --   -2.86110  -2.85813  -2.84194  -1.33745  -1.31821
 Alpha  occ. eigenvalues --   -1.31712  -1.31455  -1.30202  -1.07937  -1.07795
 Alpha  occ. eigenvalues --   -1.07595  -1.07098  -1.06737  -1.06682  -0.96479
 Alpha  occ. eigenvalues --   -0.96235  -0.96099  -0.89348  -0.89298  -0.86005
 Alpha  occ. eigenvalues --   -0.85742  -0.85594  -0.83689  -0.83424  -0.83013
 Alpha  occ. eigenvalues --   -0.82842  -0.82628  -0.82538  -0.82185  -0.81825
 Alpha  occ. eigenvalues --   -0.81445  -0.79763  -0.79669  -0.74883  -0.74703
 Alpha  occ. eigenvalues --   -0.74440  -0.74338  -0.74184  -0.74055  -0.73131
 Alpha  occ. eigenvalues --   -0.72358  -0.72233  -0.72126  -0.71715  -0.71538
 Alpha  occ. eigenvalues --   -0.71337  -0.71045  -0.70841  -0.70179  -0.67633
 Alpha  occ. eigenvalues --   -0.67250  -0.66830  -0.61364  -0.61217
 Alpha virt. eigenvalues --   -0.35322  -0.19372  -0.14876  -0.14609  -0.13807
 Alpha virt. eigenvalues --   -0.10753  -0.10501  -0.08493  -0.08117  -0.07698
 Alpha virt. eigenvalues --   -0.06637  -0.05935  -0.05315  -0.04545  -0.03748
 Alpha virt. eigenvalues --   -0.03424  -0.02876  -0.02488  -0.01795  -0.01421
 Alpha virt. eigenvalues --   -0.01337  -0.00861   0.00063   0.00726   0.00769
 Alpha virt. eigenvalues --    0.00915   0.01350   0.02122   0.02578   0.02658
 Alpha virt. eigenvalues --    0.03005   0.03186   0.03991   0.04286   0.04632
 Alpha virt. eigenvalues --    0.04809   0.05043   0.05554   0.05731   0.05813
 Alpha virt. eigenvalues --    0.06478   0.06831   0.07355   0.08607   0.08867
 Alpha virt. eigenvalues --    0.10109   0.13388   0.24609   0.25726   0.31199
 Alpha virt. eigenvalues --    0.32009   0.32739   0.33596   0.33958   0.34701
 Alpha virt. eigenvalues --    0.35933   0.38516   0.39203   0.39838   0.40601
 Alpha virt. eigenvalues --    0.41532   0.42509   0.44747   0.46067   0.47302
 Alpha virt. eigenvalues --    0.47490   0.48752   0.49144   0.50739   0.51612
 Alpha virt. eigenvalues --    0.53236   0.54150   0.55181   0.56012   0.57546
 Alpha virt. eigenvalues --    0.58019   0.59128   0.59635   0.60515   0.60975
 Alpha virt. eigenvalues --    0.62426   0.62846   0.63635   0.65019   0.65577
 Alpha virt. eigenvalues --    0.67210   0.67747   0.68299   0.68416   0.69650
 Alpha virt. eigenvalues --    0.69928   0.71662   0.72396   0.72939   0.73704
 Alpha virt. eigenvalues --    0.73901   0.74319   0.74857   0.74925   0.75738
 Alpha virt. eigenvalues --    0.76650   0.77192   0.77723   0.78134   0.78321
 Alpha virt. eigenvalues --    0.79403   0.79814   0.80609   0.81379   0.82251
 Alpha virt. eigenvalues --    0.83063   0.83554   0.84054   0.84765   0.85400
 Alpha virt. eigenvalues --    0.85584   0.86132   0.87183   0.88935   0.89601
 Alpha virt. eigenvalues --    0.90665   0.90994   0.95015   0.95654   0.99230
 Alpha virt. eigenvalues --    0.99381   1.01714   1.10832   1.11059   1.11407
 Alpha virt. eigenvalues --    1.12109   1.13569   1.14243   1.14703   1.19013
 Alpha virt. eigenvalues --    1.21344   1.22307   1.28172   1.29070   1.29986
 Alpha virt. eigenvalues --    1.31094   1.32419   1.32936   1.33692   1.34707
 Alpha virt. eigenvalues --    1.37992   1.42205   1.45641   1.46223   1.48088
 Alpha virt. eigenvalues --    1.49880   1.53287   1.55215   1.57450   1.60472
 Alpha virt. eigenvalues --    1.61959   1.62108   1.66487   1.66885   1.67644
 Alpha virt. eigenvalues --    1.68032   1.68402   1.69043   1.69678   1.70452
 Alpha virt. eigenvalues --    1.70838   1.71208   1.72042   1.72347   1.73147
 Alpha virt. eigenvalues --    1.73566   1.74653   1.75213   1.75720   1.77094
 Alpha virt. eigenvalues --    1.77622   1.78754   1.82051   1.84570   1.85034
 Alpha virt. eigenvalues --    1.85061   1.85495   1.85817   1.86161   1.86723
 Alpha virt. eigenvalues --    1.87274   1.87390   1.88254   1.88875   1.91081
 Alpha virt. eigenvalues --    1.91414   1.91457   1.92060   1.92583   1.93121
 Alpha virt. eigenvalues --    1.93211   1.93694   1.93954   1.94241   1.94574
 Alpha virt. eigenvalues --    1.95000   1.96062   1.97695   1.98579   1.98972
 Alpha virt. eigenvalues --    2.01353   2.01816   2.02731   2.05325   2.05572
 Alpha virt. eigenvalues --    2.06132   2.08260   2.09851   2.13318   2.14021
 Alpha virt. eigenvalues --    2.18242   2.19169   2.19533   2.20103   2.21016
 Alpha virt. eigenvalues --    2.22269   2.25118   2.25178   2.26313   2.32637
 Alpha virt. eigenvalues --    2.34651   2.34916   2.39750   2.40218   2.40349
 Alpha virt. eigenvalues --    2.40470   2.40709   2.41067   2.45316   2.45597
 Alpha virt. eigenvalues --    2.46437   2.46751   2.47381   2.47883   2.52519
 Alpha virt. eigenvalues --    2.53049   2.53561   2.53722   2.54578   2.54630
 Alpha virt. eigenvalues --    2.54890   2.55304   2.55807   2.65281   2.67042
 Alpha virt. eigenvalues --    2.67374   2.67678   2.68488   2.68754   2.69005
 Alpha virt. eigenvalues --    2.69419   2.69495   2.70005   2.70592   2.71159
 Alpha virt. eigenvalues --    2.72681   2.73215   2.73445   2.77574   2.77748
 Alpha virt. eigenvalues --    2.78317   2.78523   2.78848   2.79434   2.97674
 Alpha virt. eigenvalues --    3.00047   3.00605   3.01152   3.05120   3.05418
 Alpha virt. eigenvalues --    3.06583   3.06806   3.07545   3.07828   3.22346
 Alpha virt. eigenvalues --    3.22692   3.23122   3.23271   3.23762   3.24245
 Alpha virt. eigenvalues --    3.24582   3.24930   3.25332   3.25644   3.25881
 Alpha virt. eigenvalues --    3.26181   3.26535   3.28472   3.33518   3.34070
 Alpha virt. eigenvalues --    3.34260   3.34678   3.35395   3.35730   3.51757
 Alpha virt. eigenvalues --    3.96395   4.00534   4.04377   4.09968   4.29470
 Alpha virt. eigenvalues --    4.32883   4.34563   4.35086   4.36422   4.37262
 Alpha virt. eigenvalues --    4.38120   4.39450   4.40514   4.60686  32.27303
  Beta  occ. eigenvalues --  -19.57977 -14.79318 -14.78659 -14.78599 -14.78594
  Beta  occ. eigenvalues --  -10.59169 -10.59159 -10.59097 -10.58839 -10.58475
  Beta  occ. eigenvalues --  -10.58447 -10.57650 -10.57283 -10.57127  -3.90766
  Beta  occ. eigenvalues --   -2.69167  -2.65787  -2.65759  -1.31970  -1.31510
  Beta  occ. eigenvalues --   -1.31459  -1.30204  -1.27756  -1.07882  -1.07737
  Beta  occ. eigenvalues --   -1.07547  -1.07025  -1.06680  -1.06621  -0.96281
  Beta  occ. eigenvalues --   -0.95987  -0.95896  -0.89132  -0.89049  -0.85367
  Beta  occ. eigenvalues --   -0.83864  -0.83711  -0.82794  -0.82668  -0.82595
  Beta  occ. eigenvalues --   -0.82517  -0.82390  -0.82213  -0.79100  -0.75083
  Beta  occ. eigenvalues --   -0.74951  -0.74656  -0.74421  -0.74398  -0.74134
  Beta  occ. eigenvalues --   -0.72503  -0.72333  -0.72215  -0.72088  -0.71519
  Beta  occ. eigenvalues --   -0.71456  -0.71123  -0.70872  -0.70606  -0.70104
  Beta  occ. eigenvalues --   -0.68166  -0.67574  -0.65099  -0.63665  -0.63224
  Beta virt. eigenvalues --   -0.32787  -0.32632  -0.31822  -0.31800  -0.27634
  Beta virt. eigenvalues --   -0.19073  -0.14786  -0.14533  -0.13487  -0.09885
  Beta virt. eigenvalues --   -0.09510  -0.08360  -0.08048  -0.07543  -0.06324
  Beta virt. eigenvalues --   -0.05717  -0.05157  -0.04297  -0.03539  -0.03182
  Beta virt. eigenvalues --   -0.02669  -0.02077  -0.01516  -0.01247  -0.01065
  Beta virt. eigenvalues --   -0.00705   0.00239   0.00899   0.00945   0.01078
  Beta virt. eigenvalues --    0.01500   0.02207   0.02665   0.02733   0.03087
  Beta virt. eigenvalues --    0.03253   0.04075   0.04451   0.04695   0.05029
  Beta virt. eigenvalues --    0.05189   0.05676   0.05813   0.05910   0.06593
  Beta virt. eigenvalues --    0.07016   0.07527   0.08854   0.09067   0.10149
  Beta virt. eigenvalues --    0.13571   0.25878   0.26970   0.31266   0.32248
  Beta virt. eigenvalues --    0.32969   0.33880   0.34292   0.34829   0.36158
  Beta virt. eigenvalues --    0.39265   0.39650   0.40332   0.41119   0.41958
  Beta virt. eigenvalues --    0.42669   0.45369   0.46724   0.47523   0.47986
  Beta virt. eigenvalues --    0.48973   0.49564   0.50962   0.52314   0.54078
  Beta virt. eigenvalues --    0.54559   0.55472   0.56732   0.58215   0.58444
  Beta virt. eigenvalues --    0.59502   0.59847   0.61244   0.61381   0.62671
  Beta virt. eigenvalues --    0.63255   0.64092   0.65356   0.65833   0.67397
  Beta virt. eigenvalues --    0.67968   0.68504   0.68616   0.69826   0.70094
  Beta virt. eigenvalues --    0.71726   0.72443   0.73023   0.73823   0.74027
  Beta virt. eigenvalues --    0.74446   0.75058   0.75130   0.75842   0.76779
  Beta virt. eigenvalues --    0.77332   0.77832   0.78341   0.78528   0.79551
  Beta virt. eigenvalues --    0.79911   0.80806   0.81575   0.82392   0.83298
  Beta virt. eigenvalues --    0.83831   0.84309   0.84957   0.85537   0.85763
  Beta virt. eigenvalues --    0.86408   0.87363   0.89195   0.89725   0.90847
  Beta virt. eigenvalues --    0.91139   0.95266   0.96166   0.99746   1.01293
  Beta virt. eigenvalues --    1.03626   1.10979   1.11192   1.11526   1.12368
  Beta virt. eigenvalues --    1.13933   1.14477   1.15013   1.20401   1.21672
  Beta virt. eigenvalues --    1.22559   1.28333   1.29216   1.30152   1.31259
  Beta virt. eigenvalues --    1.32548   1.33017   1.33783   1.34890   1.38449
  Beta virt. eigenvalues --    1.42579   1.45819   1.46544   1.48473   1.50084
  Beta virt. eigenvalues --    1.53716   1.55770   1.58441   1.61663   1.63243
  Beta virt. eigenvalues --    1.64405   1.66863   1.67208   1.67913   1.68179
  Beta virt. eigenvalues --    1.68699   1.69261   1.69845   1.70706   1.71012
  Beta virt. eigenvalues --    1.71632   1.72522   1.72688   1.73389   1.73829
  Beta virt. eigenvalues --    1.75173   1.75678   1.75988   1.77636   1.78381
  Beta virt. eigenvalues --    1.79484   1.82827   1.84781   1.85088   1.85174
  Beta virt. eigenvalues --    1.85768   1.85874   1.86239   1.86784   1.87379
  Beta virt. eigenvalues --    1.87523   1.88473   1.88997   1.91135   1.91468
  Beta virt. eigenvalues --    1.91539   1.92152   1.92679   1.93203   1.93301
  Beta virt. eigenvalues --    1.93798   1.94001   1.94460   1.94634   1.95149
  Beta virt. eigenvalues --    1.96516   1.97756   1.98631   1.99050   2.01442
[...]
 0.00006825,0.00001452,0.00001658,0.00001272,-0.00000959,-0.00000012,0.
 00001865,-0.00001145,-0.00000824,0.00000580,0.00000142,-0.00000222,0.0
 0002101,-0.00001387,-0.00002142,-0.00000579,0.00000770,-0.00000484,0.0
 0000682,0.00000321,0.00000584,-0.00000697,-0.00000886,0.00001911,0.000
 04487,0.00008497,0.00006755,-0.00000100,-0.00002361,-0.00001283,0.0000
 0685,-0.00002500,-0.00000869,-0.00001025,-0.00001014,-0.00001029,-0.00
 052069,0.00024925,-0.00006220,-0.00099612,0.00044991,-0.00062194,-0.00
 004558,0.00003731,-0.00003757,0.00011704,-0.00007663,0.00001922,0.0009
 7778,-0.00037627,0.00028110,0.00033459,-0.00015514,-0.00037208,0.00014
 565,0.00027977,-0.00011710,0.00023340,0.00000101,0.00000163,0.00063310
 ,0.00020409,-0.00075569,0.00023017,0.00018164,0.00020493,-0.00024244,-
 0.00006241,0.00000246,0.00032047,0.00006732,0.00004305,-0.29645701,-0.
 02283407,0.08633480,-0.01221682,0.00134616,0.00587569,-0.01143890,-0.0
 0301730,0.00356594,0.31504639,-0.00070932,-0.00042034,0.00101810,-0.01
 441839,-0.00377551,0.00604951,-0.00011235,-0.00006721,-0.00016824,-0.0
 0001761,-0.00001378,-0.00010344,0.00009521,-0.00001341,-0.00000576,0.0
 0000184,-0.00006423,-0.00020355,-0.00003707,0.00010750,-0.00003312,0.0
 0001681,-0.00000410,-0.00000972,-0.00000182,0.00001508,0.00001139,0.00
 001408,-0.00004688,-0.00001787,-0.00005081,0.00007593,0.00002644,0.000
 02171,0.00001464,0.00000237,0.00002180,-0.00000975,-0.00000345,-0.0000
 0542,-0.00000573,0.00000820,0.00001650,0.00001577,0.00001779,0.0000085
 9,0.00000152,-0.00000180,0.00000823,-0.00002375,-0.00000725,-0.0000014
 7,-0.00001000,0.00000680,0.00000849,0.00011445,0.00006247,0.00000182,-
 0.00001240,-0.00000822,-0.00000547,-0.00000934,-0.00000061,-0.00000315
 ,0.00000103,-0.00000195,-0.00000331,-0.00003364,-0.00001778,0.00000963
 ,-0.00002373,-0.00001193,-0.00000597,0.00000112,-0.00000096,0.00000188
 ,0.00000596,-0.00000444,-0.00019457,-0.00026109,0.00009175,0.00062346,
 0.00038931,0.00028217,-0.00004163,0.00015107,-0.00011557,0.00012922,-0
 .00013090,-0.00009426,0.00096638,-0.00067398,0.00231891,-0.00036320,0.
 00021361,0.00024764,0.00031939,0.00011689,0.00000448,-0.00084313,0.000
 51969,0.00037835,0.00043007,0.00000755,-0.00094912,-0.00008441,0.00040
 569,-0.00030338,0.00028509,-0.00001484,0.00010285,-0.00004486,-0.00018
 505,-0.00002367,-0.02060506,-0.05066826,0.00626715,-0.01684761,-0.0012
 3723,0.00754604,0.02768118,0.00478430,-0.00997621,0.02322521,0.0530536
 9,0.00091798,0.00016712,-0.00021880,0.03126888,0.00387429,-0.01486523,
 -0.00014195,-0.00039719,-0.00013194,-0.00007185,-0.00019205,0.00003507
 ,-0.00001851,0.00005877,-0.00000582,-0.00000817,-0.00013182,0.00001670
 ,-0.00005192,0.00001711,-0.00002330,0.00000761,-0.00000732,0.00000530,
 0.00001464,0.00000594,-0.00003769,-0.00000383,0.00001012,0.00001046,0.
 00006710,-0.00003413,0.00000189,-0.00004988,-0.00003787,-0.00002538,-0
 .00002233,0.00002538,0.00000548,0.00000813,-0.00001580,0.00001189,0.00
 002703,-0.00001992,0.00002374,-0.00000928,0.00000640,-0.00000407,-0.00
 000543,0.00001046,0.00001013,0.00000970,-0.00000455,-0.00000577,-0.000
 06250,0.00003840,0.00002815,0.00001379,-0.00002538,0.00000674,-0.00000
 969,-0.00000970,-0.00002447,0.00000911,-0.00001433,-0.00003873,-0.0000
 7540,-0.00000874,0.00009151,0.00000513,0.00000392,-0.00001182,-0.00001
 337,0.00002173,-0.00000779,0.00001194,-0.00003242,0.00000376,-0.000030
 20,0.00078486,-0.00004922,-0.00071881,-0.00012142,-0.00021169,0.000042
 52,-0.00023171,0.00004673,-0.00000886,-0.00014201,-0.00000829,-0.00227
 869,0.00189993,-0.00604781,-0.00020786,-0.00012621,-0.00001176,0.00001
 466,0.00031031,0.00021024,0.00200364,0.00037810,-0.00025904,0.00227306
 ,0.00087558,0.00091267,-0.00090030,-0.00021008,-0.00060782,-0.00010899
 ,-0.00010081,-0.00008828,-0.00024399,0.00004373,0.00024055,0.07819647,
 0.00578715,-0.07860217,-0.01853835,-0.00032134,0.00893227,0.00156226,-
 0.00023667,0.00025351,-0.09291482,-0.01138306,0.08992340,0.00131188,-0
 .00003754,0.00170433,0.00010873,-0.00001123,-0.00008390,-0.13605842,0.
 14046806,0.04073301,-0.00003463,0.00037618,0.00062073,0.00010790,-0.00
 011432,-0.00025617,-0.00004493,0.00004563,-0.00068094,-0.00075795,0.00
 095443,0.00136770,0.00026243,-0.00028585,-0.00053718,0.00011505,-0.000
 16639,-0.00006905,-0.00074873,-0.00121766,-0.00023996,-0.00031284,0.00
 000009,-0.00009882,0.00001179,0.00003623,0.00002932,0.00000820,-0.0000
 3883,0.00003176,0.00003444,-0.00001132,-0.00007661,-0.00013589,-0.0003
 2125,0.00010254,0.00000237,-0.00003636,0.00004152,0.00034994,-0.000059
 06,0.00012045,0.00006460,0.00002198,-0.00016134,-0.00025985,0.00012213
 ,-0.00014994,0.00006242,-0.00003711,0.00002042,-0.00005159,-0.00003858
 ,-0.00003173,0.00004471,0.00007667,0.00006048,-0.00082138,-0.00129514,
 -0.00147588,-0.00071513,0.00097383,-0.00046952,-0.00001696,0.00024898,
 0.00030270,0.00018376,0.00023666,0.00037803,-0.00016209,-0.00027795,-0
 .00093056,0.00000884,0.00027975,0.00019795,-0.00008236,0.00009003,0.00
 027760,-0.00020657,-0.00042659,0.00034306,0.00003162,-0.00005763,-0.00
 006522,0.00000406,-0.00000342,-0.00000236,0.00001840,0.00001306,-0.000
 04443,0.00000762,0.00003441,0.00001282,0.00006769,0.00007454,0.0000176
 0,-0.00000235,-0.00001857,0.00003086,-0.00000520,-0.00001499,0.0000087
 7,0.00001618,0.00000123,0.00000485,-0.00048956,-0.00031630,-0.00020568
 ,0.00009888,0.00013588,0.00022358,0.00022743,0.00005158,-0.00001715,0.
 00029859,0.00012940,-0.00001940,0.14285064,0.00021815,0.00037581,-0.00
 311363,0.00006091,0.00003731,0.00018888,0.14191421,-0.32251212,-0.0734
 8282,0.00002455,-0.00018095,-0.00015971,0.00016698,-0.00023032,-0.0004
 9125,0.00001895,-0.00003064,0.00098267,-0.00043426,0.00015923,0.000782
 90,0.00007306,-0.00013074,-0.00017456,0.00019053,-0.00015649,-0.000075
 75,-0.00079412,-0.00016691,0.00000006,-0.00005843,-0.00018322,0.000103
 72,0.00005965,0.00000177,-0.00002006,-0.00004966,-0.00000829,0.0000163
 3,0.00001527,0.00005688,-0.00005574,-0.00099390,0.00013791,0.00049246,
 0.00012242,-0.00011100,-0.00006636,0.00033582,-0.00031174,0.00022425,0
 .00019837,-0.00001656,-0.00018011,0.00001762,-0.00026887,0.00002549,-0
 .00001726,0.00003647,0.00004717,-0.00000251,0.00004635,0.00000490,-0.0
 0000055,-0.00002780,-0.00003846,0.00002780,0.00037366,0.00047404,0.000
 39778,0.00042948,0.00014085,-0.00002811,-0.00007696,-0.00010138,0.0000
 2270,-0.00002976,0.00009802,0.00007358,-0.00035749,-0.00080834,0.00000
 912,0.00008271,0.00016935,-0.00002511,0.00011455,0.00024277,-0.0005111
 2,-0.00018801,0.00023486,0.00004658,-0.00003792,-0.00003557,0.00000682
 ,0.00001570,-0.00000395,0.00003841,0.00000892,-0.00003054,0.00002811,0
 .00001539,0.00000017,-0.00002271,-0.00000041,0.00000008,-0.00000568,-0
 .00001339,-0.00000672,-0.00001200,0.00001872,-0.00000552,0.00000245,-0
 .00002470,-0.00001481,0.00013371,-0.00047648,0.00000639,-0.00010692,-0
 .00018490,-0.00004600,0.00005574,0.00008576,-0.00013546,0.00021622,0.0
 0010672,0.00000554,-0.15450772,0.34502699,0.00563164,-0.01014081,-0.00
 013969,0.00004776,-0.00033391,-0.00078331,0.06225912,-0.11213531,-0.06
 821938,0.00030901,0.00045887,0.00064927,-0.00055750,0.00008910,0.00055
 865,-0.00025661,0.00036594,-0.00199604,0.00031879,0.00007423,-0.000171
 86,-0.00010113,0.00008490,0.00017763,-0.00014593,0.00009403,-0.0000050
 0,0.00042904,0.00031999,0.00056187,0.00002313,-0.00014980,-0.00037668,
 -0.00007955,0.00002242,0.00003387,-0.00002294,0.00003372,0.00010610,0.
 00000981,-0.00005035,0.00002284,0.00084051,-0.00023898,-0.00073628,-0.
 00030170,0.00017609,0.00024549,-0.00034529,0.00084750,0.00010039,-0.00
 012474,0.00000935,0.00010155,0.00002262,0.00011080,-0.00042393,0.00003
 343,-0.00004144,-0.00001407,-0.00000615,-0.00000920,0.00010226,0.00002
 713,0.00007941,0.00006857,-0.00012206,-0.00097467,-0.00140241,-0.00130
 704,0.00096002,0.00058302,0.00006616,0.00041267,0.00054566,0.00004368,
 0.00011501,0.00008225,-0.00031753,-0.00020826,0.00018640,0.00002826,0.
 00015747,-0.00004213,-0.00000091,0.00002786,0.00008406,-0.00020001,-0.
 00012811,0.00024030,-0.00018160,0.00006327,0.00001044,0.00002804,0.000
 01096,-0.00000246,-0.00002363,-0.00001282,0.00004457,-0.00000811,-0.00
 003052,-0.00003196,0.00016428,0.00005773,0.00006952,-0.00000113,-0.000
 02308,0.00004385,-0.00004928,-0.00003540,-0.00005845,0.00002735,0.0000
 0590,-0.00003606,-0.00022264,0.00033413,-0.00004627,0.00011172,0.00000
 451,-0.00003937,-0.00001806,0.00002635,0.00003490,-0.00003622,-0.00004
 122,-0.00004495,-0.04720869,0.08611316,0.06390558,0.00336589,-0.000063
 50,-0.00323619,-0.00029936,-0.00014873,-0.00044727,-0.35629228,-0.0107
 3790,-0.13497280,0.00011213,0.00009394,0.00038598,-0.00060583,0.000412
 71,-0.00097510,-0.00035755,0.00012383,0.00151660,0.00137897,-0.0018390
 7,0.00119970,-0.00043683,0.00028945,-0.00026139,-0.00173776,0.00022015
 ,0.00080071,0.00020175,-0.00056488,0.00028698,-0.00021025,-0.00015468,
 -0.00003803,-0.00000690,0.00006250,0.00006704,-0.00003443,-0.00001204,
 0.00006353,0.00002938,0.00005774,-0.00010280,-0.00001608,-0.00033924,-
 0.00035272,0.00002498,-0.00002374,0.00008008,-0.00000669,0.00007037,0.
 00004686,-0.00008512,0.00009685,-0.00004703,-0.00000701,-0.00008973,-0
 .00008073,-0.00000725,0.00003275,-0.00000935,0.00003766,0.00000327,-0.
 00000757,0.00000262,-0.00000806,0.00000316,-0.00000878,0.00002515,-0.0
 0000439,-0.00007453,0.00004568,-0.00002329,0.00001059,0.00001101,0.000
 03488,0.00000078,0.00000915,0.00000944,-0.00024934,0.00007451,0.000258
 04,0.00001233,-0.00005631,-0.00001974,0.00005417,-0.00001665,-0.000043
 61,-0.00023580,-0.00017896,-0.00030855,0.00036511,0.00042899,0.0001492
 2,-0.00010291,-0.00003685,-0.00002245,-0.00013489,-0.00010988,0.000002
 62,-0.00004655,-0.00008798,-0.00004756,-0.00001436,0.00007845,0.000062
 14,-0.00002872,-0.00003372,-0.00000301,0.00000178,0.00001224,-0.000009
 55,0.00002092,-0.00005181,-0.00003459,0.00007228,0.00057447,0.00057827
 ,0.00032914,0.00085331,-0.00001733,-0.00008935,-0.00001091,0.00003068,
 -0.00026094,-0.00028359,-0.00017181,-0.01584878,-0.00324823,-0.0090748
 3,0.38757107,-0.00130247,0.00129557,-0.00091974,0.00032374,0.00026838,
 0.00067175,-0.01750475,-0.05792704,-0.00537097,-0.00004975,-0.00007551
 ,-0.00001237,0.00025939,-0.00008816,-0.00073934,0.00012679,-0.00011444
 ,-0.00016337,-0.00049396,0.00133402,0.00202925,0.00020147,-0.00027282,
 -0.00098585,-0.00061768,0.00010102,0.00035360,0.00039585,-0.00230981,-
 0.00002261,-0.00052049,-0.00006974,-0.00021398,0.00004181,0.00007036,0
 .00005494,-0.00001456,-0.00005952,0.00008471,0.00006952,0.00001600,-0.
 00013050,-0.00016830,-0.00043569,-0.00008272,0.00003318,-0.00005653,0.
 00011447,0.00014961,0.00007939,0.00006907,-0.00001813,0.00005270,-0.00
 009495,-0.00001568,0.00012329,0.00000025,0.00001478,-0.00000496,-0.000
 01979,0.00000103,-0.00001450,-0.00000736,-0.00001826,0.00001312,0.0000
 0769,0.00004662,-0.00027605,-0.00029731,-0.00002975,0.00019232,0.00017
 999,-0.00000034,0.00006593,0.00012509,0.00003761,0.00006329,0.00009048
 ,-0.00072626,0.00017134,0.00021268,0.00005881,0.00011861,0.00009964,0.
 00001841,-0.00002961,-0.00025600,-0.00008683,-0.00037620,-0.00041330,0
 .00022227,-0.00033716,0.00004818,0.00006537,-0.00001068,-0.00006795,0.
 00009861,0.00016763,-0.00011911,-0.00000675,0.00008032,0.00010889,-0.0
 0019620,-0.00033864,0.00021576,-0.00002302,0.00004418,-0.00004529,0.00
 003658,-0.00002402,-0.00004406,0.00003750,0.00007332,0.00010566,-0.001
 38573,-0.00075450,-0.00165534,0.00163271,-0.00144098,0.00021218,0.0004
 0310,0.00028047,0.00070919,-0.00005531,-0.00007047,0.00000497,0.033968
 53,0.00235118,0.01576544,0.01337484,0.05826312,-0.01141666,-0.00069461
 ,-0.00307676,0.00030749,0.00046305,0.00034283,-0.17712518,-0.00426408,
 -0.11276051,-0.00022872,-0.00022044,-0.00089173,0.00007581,-0.00051836
 ,0.00049841,0.00069527,-0.00012363,-0.00166390,-0.00111407,0.00017752,
 -0.00067260,0.00025282,-0.00025532,0.00087430,0.00150977,-0.00017177,-
 0.00021477,-0.00018454,0.00065688,0.00084963,0.00026090,-0.00008154,-0
 .00013028,0.00002365,-0.00002583,-0.00006109,-0.00000109,0.00001990,0.
 00001669,-0.00001713,-0.00002211,0.00007363,-0.00019083,0.00034447,0.0
 0017019,0.00002872,-0.00002618,-0.00005716,-0.00003312,-0.00001744,-0.
 00007964,0.00003696,-0.00006308,0.00007305,-0.00009724,0.00009179,0.00
 018245,-0.00000836,-0.00000260,-0.00002242,-0.00000768,-0.00001951,-0.
 00009601,-0.00001805,-0.00001772,-0.00000144,0.00018078,-0.00007882,0.
 00009809,-0.00002249,-0.00005291,-0.00012175,0.00000608,-0.00002626,-0
 .00004250,-0.00002779,-0.00000133,-0.00001765,0.00041762,0.00007792,-0
 .00020370,-0.00001059,0.00001734,0.00001755,0.00001612,0.00002436,0.00
 004895,-0.00001954,0.00008246,0.00012156,-0.00010035,-0.00033702,-0.00
 024857,0.00012455,0.00009056,0.00004845,0.00029154,0.00001461,0.000026
 25,0.00001618,0.00005266,0.00003783,-0.00027932,0.00004457,-0.00019546
 ,0.00004316,0.00003018,-0.00000409,0.00006703,0.00004142,0.00008017,-0
 .00001799,0.00001857,0.00001913,-0.00027144,-0.00023276,-0.00025339,0.
 00021962,-0.00021769,0.00082368,0.00015205,0.00012649,0.00022012,0.000
 14572,0.00002069,0.00004249,0.01194509,-0.00071647,0.00269978,0.154578
 85,0.00487024,0.10692400,0.00146706,0.00040460,0.00213561,-0.00020629,
 -0.00023803,-0.00022717,-0.14563518,-0.13218178,0.08112662,0.00004316,
 0.00002691,0.00101897,0.00004286,-0.00008296,-0.00022674,-0.00006812,-
 0.00004827,-0.00077459,-0.00038724,-0.00075677,0.00007923,0.00005745,0
 .00001232,0.00023231,0.00024563,-0.00010460,-0.00012285,-0.00048812,0.
 00004342,0.00027198,0.00001554,-0.00000581,0.00003714,-0.00000377,-0.0
 0001067,-0.00000284,0.00000847,0.00002074,-0.00000105,-0.00000335,-0.0
 0000723,0.00001372,-0.00013215,0.00001624,0.00015641,0.00004264,-0.000
 03143,-0.00004757,0.00010175,-0.00008925,0.00000408,0.00006188,-0.0000
 1839,-0.00004976,-0.00035153,-0.00049443,0.00012267,0.00007319,0.00000
 554,0.00016657,-0.00006947,0.00002643,-0.00008394,0.00006718,0.0000117
 3,-0.00006445,-0.00056550,-0.00000790,0.00014916,0.00021515,0.00013231
 ,-0.00007312,-0.00006084,0.00008965,-0.00011408,0.00007403,-0.00005594
 ,0.00011137,-0.00031921,-0.00074002,-0.00294580,-0.00008621,-0.0003191
 4,-0.00011943,-0.00008810,0.00005471,0.00093347,-0.00345331,0.00053882
 ,-0.00025346,-0.00015766,0.00010464,-0.00014973,-0.00002737,0.00001327
 ,0.00006243,-0.00001700,-0.00006383,0.00003693,0.00003041,0.00000481,-
 0.00004316,0.00028949,0.00030568,-0.00016522,-0.00001286,-0.00007351,0
 .00003813,-0.00005782,0.00000473,0.00004574,-0.00003839,-0.00003771,-0
 .00005966,0.00069222,-0.00012421,0.00074710,-0.00147473,-0.00002491,-0
 .00001073,-0.00002890,-0.00014056,-0.00068013,0.00073859,0.00066426,0.
 00023254,0.01045705,0.01634276,-0.00970820,-0.01639328,-0.02838391,0.0
 1979640,0.15540268,0.00139729,0.00404281,0.00209039,-0.00077815,-0.000
 19950,0.00090992,-0.12824963,-0.25265029,0.12397209,0.00012745,-0.0004
 2717,0.00033119,0.00014655,0.00007280,-0.00035050,-0.00009061,-0.00046
 024,-0.00147115,0.00016087,-0.00019408,-0.00024334,-0.00002726,0.00010
 380,-0.00004452,-0.00016799,0.00012050,0.00004541,-0.00014914,-0.00006
 992,0.00022298,-0.00014569,0.00007079,0.00002451,0.00001644,0.00001984
 ,0.00002591,0.00002374,0.00001421,-0.00000279,0.00000131,-0.00000964,0
 .00000920,0.00004534,-0.00004838,-0.00006405,0.00000288,0.00000671,0.0
 0000166,-0.00001481,-0.00000100,-0.00001210,-0.00001752,-0.00000342,0.
 00001291,-0.00002588,0.00000185,0.00003114,0.00002789,-0.00002292,0.00
 002585,0.00000056,-0.00000416,-0.00000636,-0.00000025,-0.00000423,-0.0
 0004432,0.00010761,0.00013296,0.00033138,-0.00004430,-0.00016000,0.000
 00720,0.00000703,-0.00000909,-0.00001119,-0.00000680,-0.00008927,-0.00
 007693,-0.00095284,0.00093856,0.00036880,-0.00011258,-0.00070872,-0.00
 057105,0.00006897,-0.00036771,-0.00016853,-0.00030033,0.00051413,-0.00
 048091,0.00038961,-0.00013636,0.00039979,0.00003010,-0.00002196,-0.000
 08937,-0.00004682,0.00005088,-0.00007116,-0.00013962,0.00000389,0.0000
 9259,0.00010376,-0.00035243,0.00009187,-0.00009815,0.00002684,-0.00008
 523,-0.00000946,-0.00006426,-0.00007629,-0.00003473,0.00008321,0.00009
 952,0.00215123,0.00045245,-0.00164115,0.00055399,-0.00000260,0.0000790
 6,-0.00054153,-0.00016837,0.00059772,-0.00072581,-0.00232589,-0.000525
 30,-0.01904545,-0.02375582,0.01773304,0.00114506,-0.00013853,0.0009218
 0,0.14521770,0.27573975,0.00619554,0.00898993,-0.00383738,-0.00059272,
 0.00013989,0.00022625,0.10276716,0.16030774,-0.13163954,0.00031562,-0.
 00015902,0.00036101,0.00031672,0.00003884,-0.00083828,-0.00029107,-0.0
 0065512,-0.00158754,-0.00020776,-0.00045306,-0.00011443,-0.00003947,-0
 .00001177,0.00007831,0.00003073,0.00000551,-0.00002964,-0.00013164,0.0
 0009136,0.00009093,-0.00006562,0.00015330,0.00013105,0.00002689,0.0000
 1430,0.00002038,0.00003028,-0.00002117,-0.00009054,-0.00001488,0.00000
 213,-0.00003294,-0.00002504,-0.00019335,0.00009009,0.00000525,-0.00000
 651,-0.00001249,0.00004875,-0.00003677,-0.00001692,0.00002218,0.000015
 80,-0.00003705,-0.00002054,-0.00026362,-0.00018445,0.00002446,-0.00001
 121,0.00007159,-0.00001899,0.00003025,0.00003895,0.00001484,0.00000573
 ,-0.00003883,-0.00030927,0.00023678,0.00017855,-0.00003015,0.00007156,
 -0.00008314,0.00000082,0.00001764,-0.00004143,0.00005950,-0.00006467,0
 .00006814,0.00049720,0.00024279,-0.00094384,-0.00022234,-0.00064485,-0
 .00038860,0.00006474,-0.00021137,0.00085243,-0.00132200,0.00037217,0.0
 0130781,0.00022418,0.00022934,0.00004120,-0.00007668,-0.00003238,0.000
 01491,-0.00002665,-0.00001067,-0.00004036,-0.00003747,0.00000779,0.000
 03259,0.00001629,-0.00012272,-0.00011422,-0.00006036,-0.00007213,-0.00
 004139,-0.00003420,-0.00000488,0.00001063,-0.00002352,0.00002050,0.000
 03719,0.00086629,0.00051084,-0.00027582,-0.00005719,-0.00004516,0.0002
 3879,-0.00039008,-0.00005442,0.00043201,-0.00034116,-0.00097652,0.0005
 1917,-0.00575062,-0.01059085,0.00331148,-0.00984313,-0.01447225,0.0065
 2620,-0.09159490,-0.14238973,0.12570916\\-0.00002189,0.00001060,-0.000
 00764,0.00000655,-0.00000377,-0.00000880,-0.00000716,0.00001317,0.0000
 0527,0.00000367,-0.00001534,0.00001768,0.00001811,-0.00000321,0.000015
 45,0.00000506,0.00000709,-0.00001054,-0.00000243,0.00000256,-0.0000070
 9,0.00000064,0.00000127,-0.00000045,0.00000098,-0.00000035,0.00000004,
 -0.00000024,0.00000042,0.00000171,0.00000885,0.00001063,-0.00001404,0.
 00000051,-0.00000006,0.00000037,0.00000021,0.00000076,0.00000002,-0.00
 001168,-0.00001954,0.00001854,-0.00000243,-0.00000168,0.00000035,0.000
 00039,0.00000090,-0.00000056,-0.00000057,-0.00000054,0.00000115,-0.000
 00019,0.00000042,-0.00000138,-0.00000188,-0.00000222,-0.00000413,0.000
 00013,0.00000063,0.00000019,-0.00000049,-0.00000030,0.00000105,0.00000
 039,0.00000022,0.00000004,0.00001244,-0.00000433,-0.00000109,-0.000007
 71,0.00000776,0.00000700,-0.00000139,0.00000109,-0.00000052,-0.0000003
 3,0.00000040,-0.00000013,-0.00000127,-0.00000206,0.00000094,0.00000108
 ,0.00001177,0.00000122,-0.00000067,0.00000154,0.00000060,-0.00000323,0
 .00000171,0.00000220,-0.00000421,-0.00000363,0.00000146,0.00000059,-0.
 00000054,-0.00000009,0.00000033,0.00000111,-0.00000089,-0.00000010,0.0
 0000089,-0.00000175,0.00000330,0.00000966,0.00000508,-0.00000208,-0.00
 002363,-0.00000910,0.00000057,-0.00000149,-0.00000090,-0.00000127,0.00
 000557,0.00000104,-0.00000238,0.00000455,0.00000072,0.00000203,-0.0000
 0034,0.00000023,0.00000029,-0.00000135,0.,0.00000079,-0.00000075,0.000
 00066,-0.00000045,-0.00000495,-0.00000330,0.00000386,0.00000054,-0.000
 00675,0.00000330,-0.00000522,-0.00000388\\\@


 IT IS A QUALITY OF REVOLUTIONS NOT TO GO BY OLD LINES OR OLD LAWS,
 BUT TO BREAK UP BOTH, AND MAKE NEW ONES.
                                              -- A. LINCOLN (1848)
 Job cpu time:       0 days  5 hours 53 minutes 20.5 seconds.
 Elapsed time:       0 days  0 hours 22 minutes  6.0 seconds.
 File lengths (MBytes):  RWF=   1341 Int=      0 D2E=      0 Chk=     19 Scr=      1
 Normal termination of Gaussian 16 at Mon Oct 15 21:37:48 2018.
