 Entering Gaussian System, Link 0=g09
 Initial command:
 /share/apps/g09.d01/g09/l1.exe "/state/partition1/3812/Gau-23236.inp" -scrdir="/state/partition1/3812/"
 Entering Link 1 = /share/apps/g09.d01/g09/l1.exe PID=     23237.
  
 Copyright (c) 1988,1990,1992,1993,1995,1998,2003,2009,2013,
            Gaussian, Inc.  All Rights Reserved.
  
 This is part of the Gaussian(R) 09 program.  It is based on
 the Gaussian(R) 03 system (copyright 2003, Gaussian, Inc.),
 the Gaussian(R) 98 system (copyright 1998, Gaussian, Inc.),
 the Gaussian(R) 94 system (copyright 1995, Gaussian, Inc.),
 the Gaussian 92(TM) system (copyright 1992, Gaussian, Inc.),
 the Gaussian 90(TM) system (copyright 1990, Gaussian, Inc.),
 the Gaussian 88(TM) system (copyright 1988, Gaussian, Inc.),
 the Gaussian 86(TM) system (copyright 1986, Carnegie Mellon
 University), and the Gaussian 82(TM) system (copyright 1983,
 Carnegie Mellon University). Gaussian is a federally registered
 trademark of Gaussian, Inc.
  
 This software contains proprietary and confidential information,
 including trade secrets, belonging to Gaussian, Inc.
  
 This software is provided under written license and may be
 used, copied, transmitted, or stored only in accord with that
 written license.
  
 The following legend is applicable only to US Government
 contracts under FAR:
  
                    RESTRICTED RIGHTS LEGEND
  
 Use, reproduction and disclosure by the US Government is
 subject to restrictions as set forth in subparagraphs (a)
 and (c) of the Commercial Computer Software - Restricted
 Rights clause in FAR 52.227-19.
  
 Gaussian, Inc.
 340 Quinnipiac St., Bldg. 40, Wallingford CT 06492
  
  
 ---------------------------------------------------------------
 Warning -- This program may not be used in any manner that
 competes with the business of Gaussian, Inc. or will provide
 assistance to any competitor of Gaussian, Inc.  The licensee
 of this program is prohibited from giving any competitor of
 Gaussian, Inc. access to this program.  By using this program,
 the user acknowledges that Gaussian, Inc. is engaged in the
 business of creating and licensing software in the field of
 computational chemistry and represents and warrants to the
 licensee that it is not a competitor of Gaussian, Inc. and that
 it will not use this program in any manner prohibited above.
 ---------------------------------------------------------------
  

 Cite this work as:
 Gaussian 09, Revision D.01,
 M. J. Frisch, G. W. Trucks, H. B. Schlegel, G. E. Scuseria, 
 M. A. Robb, J. R. Cheeseman, G. Scalmani, V. Barone, B. Mennucci, 
 G. A. Petersson, H. Nakatsuji, M. Caricato, X. Li, H. P. Hratchian, 
 A. F. Izmaylov, J. Bloino, G. Zheng, J. L. Sonnenberg, M. Hada, 
 M. Ehara, K. Toyota, R. Fukuda, J. Hasegawa, M. Ishida, T. Nakajima, 
 Y. Honda, O. Kitao, H. Nakai, T. Vreven, J. A. Montgomery, Jr., 
 J. E. Peralta, F. Ogliaro, M. Bearpark, J. J. Heyd, E. Brothers, 
 K. N. Kudin, V. N. Staroverov, T. Keith, R. Kobayashi, J. Normand, 
 K. Raghavachari, A. Rendell, J. C. Burant, S. S. Iyengar, J. Tomasi, 
 M. Cossi, N. Rega, J. M. Millam, M. Klene, J. E. Knox, J. B. Cross, 
 V. Bakken, C. Adamo, J. Jaramillo, R. Gomperts, R. E. Stratmann, 
 O. Yazyev, A. J. Austin, R. Cammi, C. Pomelli, J. W. Ochterski, 
 R. L. Martin, K. Morokuma, V. G. Zakrzewski, G. A. Voth, 
 P. Salvador, J. J. Dannenberg, S. Dapprich, A. D. Daniels, 
 O. Farkas, J. B. Foresman, J. V. Ortiz, J. Cioslowski, 
 and D. J. Fox, Gaussian, Inc., Wallingford CT, 2013.
 
 ******************************************
 Gaussian 09:  EM64L-G09RevD.01 24-Apr-2013
                12-Nov-2018 
 ******************************************
 %chk=wmethane.chk
 %mem=24GB
 %nprocs=12
 Will use up to   12 processors via shared memory.
 --------------------------------------------------------------------
 #wb97xd/6-31g(d,p) opt=(maxcycle=1024) freq=noraman int=ultrafine 6d
 --------------------------------------------------------------------
 1/6=1024,14=-1,18=20,19=15,26=4,38=1/1,3;
 2/9=110,12=2,17=6,18=5,40=1/2;
 3/5=1,6=6,7=101,8=2,11=2,16=1,25=1,30=1,71=1,74=-58,75=-5/1,2,3;
 4//1;
 5/5=2,38=5/2;
 6/7=2,8=2,9=2,10=2,28=1/1;
 7//1,2,3,16;
 1/6=1024,14=-1,18=20,19=15,26=4/3(2);
 2/9=110/2;
 99//99;
 2/9=110/2;
 3/5=1,6=6,7=101,8=2,11=2,16=1,25=1,30=1,71=1,74=-58,75=-5/1,2,3;
 4/5=5,16=3,69=1/1;
 5/5=2,38=5/2;
 7//1,2,3,16;
 1/6=1024,14=-1,18=20,19=15,26=4/3(-5);
 2/9=110/2;
 6/7=2,8=2,9=2,10=2,19=2,28=1/1;
 99/9=1/99;
 -------------------
 Title Card Required
 -------------------
 Symbolic Z-matrix:
 Charge =  0 Multiplicity = 1
 C                    -0.26367   0.83984   0. 
 H                     0.09298  -0.16897   0. 
 H                     0.093     1.34424   0.87365 
 H                     0.093     1.34424  -0.87365 
 H                    -1.33367   0.83986   0. 
 

 GradGradGradGradGradGradGradGradGradGradGradGradGradGradGradGradGradGrad
 Berny optimization.
 Initialization pass.
                           ----------------------------
                           !    Initial Parameters    !
                           ! (Angstroms and Degrees)  !
 --------------------------                            --------------------------
 ! Name  Definition              Value          Derivative Info.                !
 --------------------------------------------------------------------------------
 ! R1    R(1,2)                  1.07           estimate D2E/DX2                !
 ! R2    R(1,3)                  1.07           estimate D2E/DX2                !
 ! R3    R(1,4)                  1.07           estimate D2E/DX2                !
 ! R4    R(1,5)                  1.07           estimate D2E/DX2                !
 ! A1    A(2,1,3)              109.4712         estimate D2E/DX2                !
 ! A2    A(2,1,4)              109.4712         estimate D2E/DX2                !
 ! A3    A(2,1,5)              109.4712         estimate D2E/DX2                !
 ! A4    A(3,1,4)              109.4713         estimate D2E/DX2                !
 ! A5    A(3,1,5)              109.4712         estimate D2E/DX2                !
 ! A6    A(4,1,5)              109.4712         estimate D2E/DX2                !
 ! D1    D(2,1,4,3)           -120.0            estimate D2E/DX2                !
 ! D2    D(2,1,5,3)            120.0            estimate D2E/DX2                !
 ! D3    D(2,1,5,4)           -120.0            estimate D2E/DX2                !
 ! D4    D(3,1,5,4)            120.0            estimate D2E/DX2                !
 --------------------------------------------------------------------------------
 Trust Radius=3.00D-01 FncErr=1.00D-07 GrdErr=1.00D-06
 Number of steps in this run=    100 maximum allowed number of steps=    100.
 GradGradGradGradGradGradGradGradGradGradGradGradGradGradGradGradGradGrad

                          Input orientation:                          
 ---------------------------------------------------------------------
 Center     Atomic      Atomic             Coordinates (Angstroms)
 Number     Number       Type             X           Y           Z
 ---------------------------------------------------------------------
      1          6           0       -0.263672    0.839844    0.000000
      2          1           0        0.092983   -0.168966    0.000000
      3          1           0        0.093001    1.344242    0.873652
      4          1           0        0.093001    1.344242   -0.873652
      5          1           0       -1.333672    0.839857    0.000000
 ---------------------------------------------------------------------
                    Distance matrix (angstroms):
                    1          2          3          4          5
     1  C    0.000000
     2  H    1.070000   0.000000
     3  H    1.070000   1.747302   0.000000
     4  H    1.070000   1.747302   1.747303   0.000000
     5  H    1.070000   1.747303   1.747303   1.747303   0.000000
 Stoichiometry    CH4
 Framework group  T[O(C),4C3(H)]
 Deg. of freedom     1
 Full point group                 T       NOp  12
 Largest Abelian subgroup         D2      NOp   4
 Largest concise Abelian subgroup D2      NOp   4
                         Standard orientation:                         
 ---------------------------------------------------------------------
 Center     Atomic      Atomic             Coordinates (Angstroms)
 Number     Number       Type             X           Y           Z
 ---------------------------------------------------------------------
      1          6           0        0.000000    0.000000    0.000000
      2          1           0        0.617765    0.617765    0.617765
      3          1           0       -0.617765   -0.617765    0.617765
      4          1           0       -0.617765    0.617765   -0.617765
      5          1           0        0.617765   -0.617765   -0.617765
 ---------------------------------------------------------------------
 Rotational constants (GHZ):    164.2463785    164.2463785    164.2463785
 Standard basis: 6-31G(d,p) (6D, 7F)
 There are    11 symmetry adapted cartesian basis functions of A   symmetry.
 There are     8 symmetry adapted cartesian basis functions of B1  symmetry.
 There are     8 symmetry adapted cartesian basis functions of B2  symmetry.
 There are     8 symmetry adapted cartesian basis functions of B3  symmetry.
 There are    11 symmetry adapted basis functions of A   symmetry.
 There are     8 symmetry adapted basis functions of B1  symmetry.
 There are     8 symmetry adapted basis functions of B2  symmetry.
 There are     8 symmetry adapted basis functions of B3  symmetry.
    35 basis functions,    56 primitive gaussians,    35 cartesian basis functions
     5 alpha electrons        5 beta electrons
       nuclear repulsion energy        13.6865185517 Hartrees.
 NAtoms=    5 NActive=    5 NUniq=    2 SFac= 4.00D+00 NAtFMM=   60 NAOKFM=F Big=F
 Integral buffers will be    131072 words long.
 Raffenetti 2 integral format.
 Two-electron integral symmetry is turned on.
 Nuclear repulsion after empirical dispersion term =       13.6861600583 Hartrees.
 One-electron integrals computed using PRISM.
 NBasis=    35 RedAO= T EigKep=  2.17D-02  NBF=    11     8     8     8
 NBsUse=    35 1.00D-06 EigRej= -1.00D+00 NBFU=    11     8     8     8
 ExpMin= 1.61D-01 ExpMax= 3.05D+03 ExpMxC= 4.57D+02 IAcc=3 IRadAn=         5 AccDes= 0.00D+00
 Harris functional with IExCor= 4639 and IRadAn=       5 diagonalized for initial guess.
 HarFok:  IExCor= 4639 AccDes= 0.00D+00 IRadAn=         5 IDoV= 1 UseB2=F ITyADJ=14
 ICtDFT=  3500011 ScaDFX=  1.000000  1.000000  1.000000  1.000000
 FoFCou: FMM=F IPFlag=           0 FMFlag=      100000 FMFlg1=           0
         NFxFlg=           0 DoJE=T BraDBF=F KetDBF=T FulRan=T
         wScrn=  0.000000 ICntrl=     500 IOpCl=  0 I1Cent=   200000004 NGrid=           0
         NMat0=    1 NMatS0=      1 NMatT0=    0 NMatD0=    1 NMtDS0=    0 NMtDT0=    0
 Petite list used in FoFCou.
 Initial guess orbital symmetries:
       Occupied  (A) (A) (T) (T) (T)
       Virtual   (A) (T) (T) (T) (T) (T) (T) (T) (T) (T) (A) (A)
                 (E) (E) (T) (T) (T) (T) (T) (T) (T) (T) (T) (E)
                 (E) (A) (T) (T) (T) (A)
 The electronic state of the initial guess is 1-A.
 Keep R1 ints in memory in symmetry-blocked form, NReq=1285522.
 Requested convergence on RMS density matrix=1.00D-08 within 128 cycles.
 Requested convergence on MAX density matrix=1.00D-06.
 Requested convergence on             energy=1.00D-06.
 No special actions if energy rises.
 Integral accuracy reduced to 1.0D-05 until final iterations.
 Initial convergence to 1.0D-05 achieved.  Increase integral accuracy.
 SCF Done:  E(RwB97XD) =  -40.5059499740     A.U. after   11 cycles
            NFock= 11  Conv=0.13D-08     -V/T= 2.0078

 **********************************************************************

            Population analysis using the SCF density.

 **********************************************************************

 Orbital symmetries:
       Occupied  (A) (A) (T) (T) (T)
       Virtual   (A) (T) (T) (T) (T) (T) (T) (T) (T) (T) (A) (A)
                 (E) (E) (T) (T) (T) (T) (T) (T) (T) (T) (T) (E)
                 (E) (A) (T) (T) (T) (A)
 The electronic state is 1-A.
 Alpha  occ. eigenvalues --  -10.26646  -0.79403  -0.47558  -0.47558  -0.47558
 Alpha virt. eigenvalues --    0.21027   0.26756   0.26756   0.26756   0.61354
 Alpha virt. eigenvalues --    0.61354   0.61354   0.98605   0.98605   0.98605
 Alpha virt. eigenvalues --    1.05202   1.19442   1.44426   1.44426   2.14823
 Alpha virt. eigenvalues --    2.14823   2.14823   2.17590   2.17590   2.17590
 Alpha virt. eigenvalues --    2.75487   2.75487   2.75487   3.05427   3.05427
 Alpha virt. eigenvalues --    3.28665   3.56365   3.56365   3.56365   4.52449
          Condensed to atoms (all electrons):
               1          2          3          4          5
     1  C    4.954035   0.397107   0.397107   0.397107   0.397107
     2  H    0.397107   0.546428  -0.026384  -0.026384  -0.026384
     3  H    0.397107  -0.026384   0.546428  -0.026384  -0.026384
     4  H    0.397107  -0.026384  -0.026384   0.546428  -0.026384
     5  H    0.397107  -0.026384  -0.026384  -0.026384   0.546428
 Mulliken charges:
               1
     1  C   -0.542464
     2  H    0.135616
     3  H    0.135616
     4  H    0.135616
     5  H    0.135616
 Sum of Mulliken charges =   0.00000
 Mulliken charges with hydrogens summed into heavy atoms:
               1
     1  C    0.000000
 Electronic spatial extent (au):  <R**2>=             34.5241
 Charge=              0.0000 electrons
 Dipole moment (field-independent basis, Debye):
    X=              0.0000    Y=              0.0000    Z=              0.0000  Tot=              0.0000
 Quadrupole moment (field-independent basis, Debye-Ang):
   XX=             -8.1464   YY=             -8.1464   ZZ=             -8.1464
   XY=              0.0000   XZ=              0.0000   YZ=              0.0000
 Traceless Quadrupole moment (field-independent basis, Debye-Ang):
   XX=              0.0000   YY=              0.0000   ZZ=              0.0000
   XY=              0.0000   XZ=              0.0000   YZ=              0.0000
 Octapole moment (field-independent basis, Debye-Ang**2):
  XXX=              0.0000  YYY=              0.0000  ZZZ=              0.0000  XYY=              0.0000
  XXY=              0.0000  XXZ=              0.0000  XZZ=              0.0000  YZZ=              0.0000
  YYZ=              0.0000  XYZ=              0.6812
 Hexadecapole moment (field-independent basis, Debye-Ang**3):
 XXXX=            -15.1970 YYYY=            -15.1970 ZZZZ=            -15.1970 XXXY=              0.0000
 XXXZ=              0.0000 YYYX=              0.0000 YYYZ=              0.0000 ZZZX=              0.0000
 ZZZY=              0.0000 XXYY=             -4.6148 XXZZ=             -4.6148 YYZZ=             -4.6148
 XXYZ=              0.0000 YYXZ=              0.0000 ZZXY=              0.0000
 N-N= 1.368616005826D+01 E-N=-1.205147842476D+02  KE= 4.019225748769D+01
 Symmetry A    KE= 3.433228943441D+01
 Symmetry B1   KE= 1.953322684427D+00
 Symmetry B2   KE= 1.953322684427D+00
 Symmetry B3   KE= 1.953322684427D+00
 Calling FoFJK, ICntrl=      2127 FMM=F ISym2X=1 I1Cent= 0 IOpClX= 0 NMat=1 NMatS=1 NMatT=0.
 ***** Axes restored to original set *****
 -------------------------------------------------------------------
 Center     Atomic                   Forces (Hartrees/Bohr)
 Number     Number              X              Y              Z
 -------------------------------------------------------------------
      1        6           0.000000000    0.000000000    0.000000000
      2        1           0.005057814   -0.014306210   -0.000000012
      3        1           0.005058084    0.007153006    0.012389488
      4        1           0.005058064    0.007153020   -0.012389488
      5        1          -0.015173962    0.000000184    0.000000012
 -------------------------------------------------------------------
 Cartesian Forces:  Max     0.015173962 RMS     0.007835800

 GradGradGradGradGradGradGradGradGradGradGradGradGradGradGradGradGradGrad
 Berny optimization.
 FormGI is forming the generalized inverse of G from B-inverse, IUseBI=4.
 Internal  Forces:  Max     0.015173962 RMS     0.008110824
 Search for a local minimum.
 Step number   1 out of a maximum of  100
 All quantities printed in internal units (Hartrees-Bohrs-Radians)
 Mixed Optimization -- RFO/linear search
 Second derivative matrix not updated -- first step.
 The second derivative matrix:
                          R1        R2        R3        R4        A1
           R1           0.37230
           R2           0.00000   0.37230
           R3           0.00000   0.00000   0.37230
           R4           0.00000   0.00000   0.00000   0.37230
           A1           0.00000   0.00000   0.00000   0.00000   0.16000
           A2           0.00000   0.00000   0.00000   0.00000   0.00000
           A3           0.00000   0.00000   0.00000   0.00000   0.00000
           A4           0.00000   0.00000   0.00000   0.00000   0.00000
           A5           0.00000   0.00000   0.00000   0.00000   0.00000
           A6           0.00000   0.00000   0.00000   0.00000   0.00000
           D1           0.00000   0.00000   0.00000   0.00000   0.00000
           D2           0.00000   0.00000   0.00000   0.00000   0.00000
           D3           0.00000   0.00000   0.00000   0.00000   0.00000
           D4           0.00000   0.00000   0.00000   0.00000   0.00000
                          A2        A3        A4        A5        A6
           A2           0.16000
           A3           0.00000   0.16000
           A4           0.00000   0.00000   0.16000
           A5           0.00000   0.00000   0.00000   0.16000
           A6           0.00000   0.00000   0.00000   0.00000   0.16000
           D1           0.00000   0.00000   0.00000   0.00000   0.00000
           D2           0.00000   0.00000   0.00000   0.00000   0.00000
           D3           0.00000   0.00000   0.00000   0.00000   0.00000
           D4           0.00000   0.00000   0.00000   0.00000   0.00000
                          D1        D2        D3        D4
           D1           0.00499
           D2           0.00000   0.00499
           D3           0.00000   0.00000   0.00499
           D4           0.00000   0.00000   0.00000   0.00499
 ITU=  0
     Eigenvalues ---    0.05269   0.05891   0.08766   0.16000   0.16000
     Eigenvalues ---    0.37230   0.37230   0.37230   0.37230
 RFO step:  Lambda=-2.45757284D-03 EMin= 5.26881007D-02
 Linear search not attempted -- first point.
 Iteration  1 RMS(Cart)=  0.02164279 RMS(Int)=  0.00000000
 Iteration  2 RMS(Cart)=  0.00000000 RMS(Int)=  0.00000000
 ClnCor:  largest displacement from symmetrization is 1.34D-14 for atom     3.
 Variable       Old X    -DE/DX   Delta X   Delta X   Delta X     New X
                                 (Linear)    (Quad)   (Total)
    R1        2.02201   0.01517   0.00000   0.04049   0.04049   2.06250
    R2        2.02201   0.01517   0.00000   0.04049   0.04049   2.06250
    R3        2.02201   0.01517   0.00000   0.04049   0.04049   2.06250
    R4        2.02201   0.01517   0.00000   0.04049   0.04049   2.06250
    A1        1.91063   0.00000   0.00000   0.00000   0.00000   1.91063
    A2        1.91063   0.00000   0.00000   0.00000   0.00000   1.91063
    A3        1.91063   0.00000   0.00000   0.00000   0.00000   1.91063
    A4        1.91063   0.00000   0.00000   0.00000   0.00000   1.91063
    A5        1.91063   0.00000   0.00000   0.00000   0.00000   1.91063
    A6        1.91063   0.00000   0.00000   0.00000   0.00000   1.91063
    D1       -2.09440   0.00000   0.00000   0.00000   0.00000  -2.09440
    D2        2.09440   0.00000   0.00000   0.00000   0.00000   2.09440
    D3       -2.09440   0.00000   0.00000   0.00000   0.00000  -2.09440
    D4        2.09440   0.00000   0.00000   0.00000   0.00000   2.09440
         Item               Value     Threshold  Converged?
 Maximum Force            0.015174     0.000450     NO 
 RMS     Force            0.008111     0.000300     NO 
 Maximum Displacement     0.040490     0.001800     NO 
 RMS     Displacement     0.021643     0.001200     NO 
 Predicted change in Energy=-1.236844D-03
 GradGradGradGradGradGradGradGradGradGradGradGradGradGradGradGradGradGrad

                          Input orientation:                          
 ---------------------------------------------------------------------
 Center     Atomic      Atomic             Coordinates (Angstroms)
 Number     Number       Type             X           Y           Z
 ---------------------------------------------------------------------
      1          6           0       -0.263672    0.839844    0.000000
      2          1           0        0.100124   -0.189167   -0.000001
      3          1           0        0.100144    1.354342    0.891146
      4          1           0        0.100142    1.354343   -0.891146
      5          1           0       -1.355098    0.839857    0.000001
 ---------------------------------------------------------------------
                    Distance matrix (angstroms):
                    1          2          3          4          5
     1  C    0.000000
     2  H    1.091426   0.000000
     3  H    1.091426   1.782292   0.000000
     4  H    1.091426   1.782292   1.782292   0.000000
     5  H    1.091426   1.782292   1.782292   1.782292   0.000000
 Stoichiometry    CH4
 Framework group  TD[O(C),4C3(H)]
 Deg. of freedom     1
 Full point group                 TD      NOp  24
 Omega: Change in point group or standard orientation.

 Old FWG=T    [O(C1),4C3(H1)]
 New FWG=TD   [O(C1),4C3(H1)]
 Largest Abelian subgroup         D2      NOp   4
 Largest concise Abelian subgroup D2      NOp   4
                         Standard orientation:                         
 ---------------------------------------------------------------------
 Center     Atomic      Atomic             Coordinates (Angstroms)
 Number     Number       Type             X           Y           Z
 ---------------------------------------------------------------------
      1          6           0        0.000000    0.000000    0.000000
      2          1           0        0.630135    0.630135    0.630135
      3          1           0       -0.630135   -0.630135    0.630135
      4          1           0       -0.630135    0.630135   -0.630135
      5          1           0        0.630135   -0.630135   -0.630135
 ---------------------------------------------------------------------
 Rotational constants (GHZ):    157.8608652    157.8608652    157.8608652
 Standard basis: 6-31G(d,p) (6D, 7F)
 There are    11 symmetry adapted cartesian basis functions of A   symmetry.
 There are     8 symmetry adapted cartesian basis functions of B1  symmetry.
 There are     8 symmetry adapted cartesian basis functions of B2  symmetry.
 There are     8 symmetry adapted cartesian basis functions of B3  symmetry.
 There are    11 symmetry adapted basis functions of A   symmetry.
 There are     8 symmetry adapted basis functions of B1  symmetry.
 There are     8 symmetry adapted basis functions of B2  symmetry.
 There are     8 symmetry adapted basis functions of B3  symmetry.
    35 basis functions,    56 primitive gaussians,    35 cartesian basis functions
     5 alpha electrons        5 beta electrons
       nuclear repulsion energy        13.4178313390 Hartrees.
 NAtoms=    5 NActive=    5 NUniq=    2 SFac= 4.00D+00 NAtFMM=   60 NAOKFM=F Big=F
 Integral buffers will be    131072 words long.
 Raffenetti 2 integral format.
 Two-electron integral symmetry is turned on.
 Nuclear repulsion after empirical dispersion term =       13.4174309126 Hartrees.
 One-electron integrals computed using PRISM.
 NBasis=    35 RedAO= T EigKep=  2.32D-02  NBF=    11     8     8     8
 NBsUse=    35 1.00D-06 EigRej= -1.00D+00 NBFU=    11     8     8     8
 Initial guess from the checkpoint file:  "wmethane.chk"
 B after Tr=     0.000000    0.000000    0.000000
         Rot=    1.000000    0.000000    0.000000    0.000000 Ang=   0.00 deg.
 Initial guess orbital symmetries:
       Occupied  (A1) (A1) (T2) (T2) (T2)
       Virtual   (A1) (E) (E) (A1) (E) (E) (A1) (A1) (A1) (T2)
                 (T2) (T2) (T1) (T2) (T2) (T2) (T2) (T2) (T2) (T1)
                 (T2) (T2) (T2) (T2) (T2) (T2) (T1) (T2) (T2) (T2)
 ExpMin= 1.61D-01 ExpMax= 3.05D+03 ExpMxC= 4.57D+02 IAcc=2 IRadAn=         4 AccDes= 0.00D+00
 Harris functional with IExCor= 4639 and IRadAn=       4 diagonalized for initial guess.
 HarFok:  IExCor= 4639 AccDes= 0.00D+00 IRadAn=         4 IDoV= 1 UseB2=F ITyADJ=14
 ICtDFT=  3500011 ScaDFX=  1.000000  1.000000  1.000000  1.000000
 FoFCou: FMM=F IPFlag=           0 FMFlag=      100000 FMFlg1=           0
         NFxFlg=           0 DoJE=T BraDBF=F KetDBF=T FulRan=T
         wScrn=  0.000000 ICntrl=     500 IOpCl=  0 I1Cent=   200000004 NGrid=           0
         NMat0=    1 NMatS0=      1 NMatT0=    0 NMatD0=    1 NMtDS0=    0 NMtDT0=    0
 Petite list used in FoFCou.
 Keep R1 ints in memory in symmetry-blocked form, NReq=1285714.
 Requested convergence on RMS density matrix=1.00D-08 within 128 cycles.
 Requested convergence on MAX density matrix=1.00D-06.
 Requested convergence on             energy=1.00D-06.
 No special actions if energy rises.
 Integral accuracy reduced to 1.0D-05 until final iterations.
 Initial convergence to 1.0D-05 achieved.  Increase integral accuracy.
 SCF Done:  E(RwB97XD) =  -40.5071430710     A.U. after   10 cycles
            NFock= 10  Conv=0.10D-08     -V/T= 2.0108
 Calling FoFJK, ICntrl=      2127 FMM=F ISym2X=1 I1Cent= 0 IOpClX= 0 NMat=1 NMatS=1 NMatT=0.
 ***** Axes restored to original set *****
 -------------------------------------------------------------------
 Center     Atomic                   Forces (Hartrees/Bohr)
 Number     Number              X              Y              Z
 -------------------------------------------------------------------
      1        6           0.000000000    0.000000000    0.000000000
      2        1          -0.000046883    0.000132609    0.000000000
      3        1          -0.000046885   -0.000066304   -0.000114842
      4        1          -0.000046885   -0.000066304    0.000114842
      5        1           0.000140652   -0.000000002    0.000000000
 -------------------------------------------------------------------
 Cartesian Forces:  Max     0.000140652 RMS     0.000072633

 GradGradGradGradGradGradGradGradGradGradGradGradGradGradGradGradGradGrad
 Berny optimization.
 Using GEDIIS/GDIIS optimizer.
 FormGI is forming the generalized inverse of G from B-inverse, IUseBI=4.
 Internal  Forces:  Max     0.000140652 RMS     0.000075182
 Search for a local minimum.
 Step number   2 out of a maximum of  100
 All quantities printed in internal units (Hartrees-Bohrs-Radians)
 Mixed Optimization -- En-DIIS/RFO-DIIS
 Update second derivatives using D2CorX and points    1    2
 DE= -1.19D-03 DEPred=-1.24D-03 R= 9.65D-01
 TightC=F SS=  1.41D+00  RLast= 8.10D-02 DXNew= 5.0454D-01 2.4294D-01
 Trust test= 9.65D-01 RLast= 8.10D-02 DXMaxT set to 3.00D-01
 The second derivative matrix:
                          R1        R2        R3        R4        A1
           R1           0.37378
           R2           0.00148   0.37378
           R3           0.00148   0.00148   0.37378
           R4           0.00148   0.00148   0.00148   0.37378
           A1           0.00000   0.00000   0.00000   0.00000   0.16000
           A2           0.00000   0.00000   0.00000   0.00000   0.00000
           A3           0.00000   0.00000   0.00000   0.00000   0.00000
           A4           0.00000   0.00000   0.00000   0.00000   0.00000
           A5           0.00000   0.00000   0.00000   0.00000   0.00000
           A6           0.00000   0.00000   0.00000   0.00000   0.00000
           D1           0.00000   0.00000   0.00000   0.00000   0.00000
           D2           0.00000   0.00000   0.00000   0.00000   0.00000
           D3           0.00000   0.00000   0.00000   0.00000   0.00000
           D4           0.00000   0.00000   0.00000   0.00000   0.00000
                          A2        A3        A4        A5        A6
           A2           0.16000
           A3           0.00000   0.16000
           A4           0.00000   0.00000   0.16000
           A5           0.00000   0.00000   0.00000   0.16000
           A6           0.00000   0.00000   0.00000   0.00000   0.16000
           D1           0.00000   0.00000   0.00000   0.00000   0.00000
           D2           0.00000   0.00000   0.00000   0.00000   0.00000
           D3           0.00000   0.00000   0.00000   0.00000   0.00000
           D4           0.00000   0.00000   0.00000   0.00000   0.00000
                          D1        D2        D3        D4
           D1           0.00499
           D2           0.00000   0.00499
           D3           0.00000   0.00000   0.00499
           D4           0.00000   0.00000   0.00000   0.00499
 ITU=  1  0
 Use linear search instead of GDIIS.
     Eigenvalues ---    0.05269   0.05891   0.08766   0.16000   0.16000
     Eigenvalues ---    0.37230   0.37230   0.37230   0.37823
 RFO step:  Lambda= 0.00000000D+00 EMin= 5.26881007D-02
 Quartic linear search produced a step of -0.00975.
 Iteration  1 RMS(Cart)=  0.00021093 RMS(Int)=  0.00000000
 Iteration  2 RMS(Cart)=  0.00000000 RMS(Int)=  0.00000000
 ClnCor:  largest displacement from symmetrization is 1.98D-14 for atom     3.
 Variable       Old X    -DE/DX   Delta X   Delta X   Delta X     New X
                                 (Linear)    (Quad)   (Total)
    R1        2.06250  -0.00014  -0.00039   0.00000  -0.00039   2.06210
    R2        2.06250  -0.00014  -0.00039   0.00000  -0.00039   2.06210
    R3        2.06250  -0.00014  -0.00039   0.00000  -0.00039   2.06210
    R4        2.06250  -0.00014  -0.00039   0.00000  -0.00039   2.06210
    A1        1.91063   0.00000   0.00000   0.00000   0.00000   1.91063
    A2        1.91063   0.00000   0.00000   0.00000   0.00000   1.91063
    A3        1.91063   0.00000   0.00000   0.00000   0.00000   1.91063
    A4        1.91063   0.00000   0.00000   0.00000   0.00000   1.91063
    A5        1.91063   0.00000   0.00000   0.00000   0.00000   1.91063
    A6        1.91063   0.00000   0.00000   0.00000   0.00000   1.91063
    D1       -2.09440   0.00000   0.00000   0.00000   0.00000  -2.09440
    D2        2.09440   0.00000   0.00000   0.00000   0.00000   2.09440
    D3       -2.09440   0.00000   0.00000   0.00000   0.00000  -2.09440
    D4        2.09440   0.00000   0.00000   0.00000   0.00000   2.09440
         Item               Value     Threshold  Converged?
 Maximum Force            0.000141     0.000450     YES
 RMS     Force            0.000075     0.000300     YES
 Maximum Displacement     0.000395     0.001800     YES
 RMS     Displacement     0.000211     0.001200     YES
 Predicted change in Energy=-1.042166D-07
 Optimization completed.
    -- Stationary point found.
                           ----------------------------
                           !   Optimized Parameters   !
                           ! (Angstroms and Degrees)  !
 --------------------------                            --------------------------
 ! Name  Definition              Value          Derivative Info.                !
 --------------------------------------------------------------------------------
 ! R1    R(1,2)                  1.0914         -DE/DX =   -0.0001              !
 ! R2    R(1,3)                  1.0914         -DE/DX =   -0.0001              !
 ! R3    R(1,4)                  1.0914         -DE/DX =   -0.0001              !
 ! R4    R(1,5)                  1.0914         -DE/DX =   -0.0001              !
 ! A1    A(2,1,3)              109.4712         -DE/DX =    0.0                 !
 ! A2    A(2,1,4)              109.4712         -DE/DX =    0.0                 !
 ! A3    A(2,1,5)              109.4712         -DE/DX =    0.0                 !
 ! A4    A(3,1,4)              109.4712         -DE/DX =    0.0                 !
 ! A5    A(3,1,5)              109.4712         -DE/DX =    0.0                 !
 ! A6    A(4,1,5)              109.4712         -DE/DX =    0.0                 !
 ! D1    D(2,1,4,3)           -120.0            -DE/DX =    0.0                 !
 ! D2    D(2,1,5,3)            120.0            -DE/DX =    0.0                 !
 ! D3    D(2,1,5,4)           -120.0            -DE/DX =    0.0                 !
 ! D4    D(3,1,5,4)            120.0            -DE/DX =    0.0                 !
 --------------------------------------------------------------------------------
 GradGradGradGradGradGradGradGradGradGradGradGradGradGradGradGradGradGrad

                          Input orientation:                          
 ---------------------------------------------------------------------
 Center     Atomic      Atomic             Coordinates (Angstroms)
 Number     Number       Type             X           Y           Z
 ---------------------------------------------------------------------
      1          6           0       -0.263672    0.839844    0.000000
      2          1           0        0.100124   -0.189167   -0.000001
      3          1           0        0.100144    1.354342    0.891146
      4          1           0        0.100142    1.354343   -0.891146
      5          1           0       -1.355098    0.839857    0.000001
 ---------------------------------------------------------------------
                    Distance matrix (angstroms):
                    1          2          3          4          5
     1  C    0.000000
     2  H    1.091426   0.000000
     3  H    1.091426   1.782292   0.000000
     4  H    1.091426   1.782292   1.782292   0.000000
     5  H    1.091426   1.782292   1.782292   1.782292   0.000000
 Stoichiometry    CH4
 Framework group  TD[O(C),4C3(H)]
 Deg. of freedom     1
 Full point group                 TD      NOp  24
 Largest Abelian subgroup         D2      NOp   4
 Largest concise Abelian subgroup D2      NOp   4
                         Standard orientation:                         
 ---------------------------------------------------------------------
 Center     Atomic      Atomic             Coordinates (Angstroms)
 Number     Number       Type             X           Y           Z
 ---------------------------------------------------------------------
      1          6           0        0.000000    0.000000    0.000000
      2          1           0        0.630135    0.630135    0.630135
      3          1           0       -0.630135   -0.630135    0.630135
      4          1           0       -0.630135    0.630135   -0.630135
      5          1           0        0.630135   -0.630135   -0.630135
 ---------------------------------------------------------------------
 Rotational constants (GHZ):    157.8608652    157.8608652    157.8608652

 **********************************************************************

            Population analysis using the SCF density.

 **********************************************************************

 Orbital symmetries:
       Occupied  (A1) (A1) (T2) (T2) (T2)
       Virtual   (A1) (T2) (T2) (T2) (T2) (T2) (T2) (T2) (T2) (T2)
                 (A1) (A1) (E) (E) (T1) (T1) (T1) (T2) (T2) (T2)
                 (T2) (T2) (T2) (E) (E) (A1) (T2) (T2) (T2) (A1)
 The electronic state is 1-A1.
 Alpha  occ. eigenvalues --  -10.27592  -0.78741  -0.47184  -0.47184  -0.47184
 Alpha virt. eigenvalues --    0.20453   0.26042   0.26042   0.26042   0.61845
 Alpha virt. eigenvalues --    0.61845   0.61845   0.97348   0.97348   0.97348
 Alpha virt. eigenvalues --    1.02263   1.18752   1.44654   1.44654   2.13936
 Alpha virt. eigenvalues --    2.13936   2.13936   2.14532   2.14532   2.14532
 Alpha virt. eigenvalues --    2.72316   2.72316   2.72316   3.00379   3.00379
 Alpha virt. eigenvalues --    3.21556   3.51870   3.51870   3.51870   4.52042
          Condensed to atoms (all electrons):
               1          2          3          4          5
     1  C    4.963494   0.393176   0.393176   0.393176   0.393176
     2  H    0.393176   0.550321  -0.025849  -0.025849  -0.025849
     3  H    0.393176  -0.025849   0.550321  -0.025849  -0.025849
     4  H    0.393176  -0.025849  -0.025849   0.550321  -0.025849
     5  H    0.393176  -0.025849  -0.025849  -0.025849   0.550321
 Mulliken charges:
               1
     1  C   -0.536198
     2  H    0.134050
     3  H    0.134050
     4  H    0.134050
     5  H    0.134050
 Sum of Mulliken charges =   0.00000
 Mulliken charges with hydrogens summed into heavy atoms:
               1
     1  C    0.000000
 Electronic spatial extent (au):  <R**2>=             35.3190
 Charge=              0.0000 electrons
 Dipole moment (field-independent basis, Debye):
    X=              0.0000    Y=              0.0000    Z=              0.0000  Tot=              0.0000
 Quadrupole moment (field-independent basis, Debye-Ang):
   XX=             -8.2062   YY=             -8.2062   ZZ=             -8.2062
   XY=              0.0000   XZ=              0.0000   YZ=              0.0000
 Traceless Quadrupole moment (field-independent basis, Debye-Ang):
   XX=              0.0000   YY=              0.0000   ZZ=              0.0000
   XY=              0.0000   XZ=              0.0000   YZ=              0.0000
 Octapole moment (field-independent basis, Debye-Ang**2):
  XXX=              0.0000  YYY=              0.0000  ZZZ=              0.0000  XYY=              0.0000
  XXY=              0.0000  XXZ=              0.0000  XZZ=              0.0000  YZZ=              0.0000
  YYZ=              0.0000  XYZ=              0.7371
 Hexadecapole moment (field-independent basis, Debye-Ang**3):
 XXXX=            -15.7114 YYYY=            -15.7114 ZZZZ=            -15.7114 XXXY=              0.0000
 XXXZ=              0.0000 YYYX=              0.0000 YYYZ=              0.0000 ZZZX=              0.0000
 ZZZY=              0.0000 XXYY=             -4.7474 XXZZ=             -4.7474 YYZZ=             -4.7474
 XXYZ=              0.0000 YYXZ=              0.0000 ZZXY=              0.0000
 N-N= 1.341743091256D+01 E-N=-1.198955138940D+02  KE= 4.007516117724D+01
 Symmetry A    KE= 3.430979802682D+01
 Symmetry B1   KE= 1.921787716805D+00
 Symmetry B2   KE= 1.921787716805D+00
 Symmetry B3   KE= 1.921787716805D+00
 1\1\GINC-ACCEL04\FOpt\RwB97XD\6-31G(d,p)\C1H4\JWCHOI\12-Nov-2018\0\\#w
 b97xd/6-31g(d,p) opt=(maxcycle=1024) freq=noraman int=ultrafine 6d\\Ti
 tle Card Required\\0,1\C,-0.263671869,0.839843696,0.\H,0.1001244387,-0
 .1891673094,-0.000000895\H,0.1001438658,1.3543420718,0.8911458551\H,0.
 1001424042,1.3543431053,-0.8911458551\H,-1.3550981846,0.8398569163,0.0
 00000895\\Version=EM64L-G09RevD.01\State=1-A1\HF=-40.5071431\RMSD=1.04
 3e-09\RMSF=7.263e-05\Dipole=0.,0.,0.\Quadrupole=0.,0.,0.,0.,0.,0.\PG=T
 D [O(C1),4C3(H1)]\\@


 Not by the face shall a man be known, but by the mask.
                               -- Karen Blixen
 Job cpu time:       0 days  0 hours  0 minutes 48.0 seconds.
 File lengths (MBytes):  RWF=      5 Int=      0 D2E=      0 Chk=      1 Scr=      1
 Normal termination of Gaussian 09 at Mon Nov 12 02:10:11 2018.
 Link1:  Proceeding to internal job step number  2.
 ----------------------------------------------------------------------
 #N Geom=AllCheck Guess=TCheck SCRF=Check GenChk RwB97XD/6-31G(d,p) Fre
 q
 ----------------------------------------------------------------------
 1/6=1024,10=4,29=7,30=1,38=1,40=1/1,3;
 2/12=2,40=1/2;
 3/5=1,6=6,7=101,8=2,11=2,14=-4,16=1,25=1,30=1,70=2,71=2,74=-58,75=-5,116=1,140=1/1,2,3;
 4/5=101/1;
 5/5=2,98=1/2;
 8/6=4,10=90,11=11/1;
 11/6=1,8=1,9=11,15=111,16=1/1,2,10;
 10/6=1/2;
 6/7=2,8=2,9=2,10=2,18=1,28=1/1;
 7/8=1,10=1,25=1/1,2,3,16;
 1/6=1024,10=4,30=1/3;
 99//99;
 Structure from the checkpoint file:  "wmethane.chk"
 -------------------
 Title Card Required
 -------------------
 Charge =  0 Multiplicity = 1
 Redundant internal coordinates found in file.
 C,0,-0.263671869,0.839843696,0.
 H,0,0.1001244387,-0.1891673094,-0.000000895
 H,0,0.1001438658,1.3543420718,0.8911458551
 H,0,0.1001424042,1.3543431053,-0.8911458551
 H,0,-1.3550981846,0.8398569163,0.000000895
 Recover connectivity data from disk.

 GradGradGradGradGradGradGradGradGradGradGradGradGradGradGradGradGradGrad
 Berny optimization.
 Initialization pass.
                           ----------------------------
                           !    Initial Parameters    !
                           ! (Angstroms and Degrees)  !
 --------------------------                            --------------------------
 ! Name  Definition              Value          Derivative Info.                !
 --------------------------------------------------------------------------------
 ! R1    R(1,2)                  1.0914         calculate D2E/DX2 analytically  !
 ! R2    R(1,3)                  1.0914         calculate D2E/DX2 analytically  !
 ! R3    R(1,4)                  1.0914         calculate D2E/DX2 analytically  !
 ! R4    R(1,5)                  1.0914         calculate D2E/DX2 analytically  !
 ! A1    A(2,1,3)              109.4712         calculate D2E/DX2 analytically  !
 ! A2    A(2,1,4)              109.4712         calculate D2E/DX2 analytically  !
 ! A3    A(2,1,5)              109.4712         calculate D2E/DX2 analytically  !
 ! A4    A(3,1,4)              109.4712         calculate D2E/DX2 analytically  !
 ! A5    A(3,1,5)              109.4712         calculate D2E/DX2 analytically  !
 ! A6    A(4,1,5)              109.4712         calculate D2E/DX2 analytically  !
 ! D1    D(2,1,4,3)           -120.0            calculate D2E/DX2 analytically  !
 ! D2    D(2,1,5,3)            120.0            calculate D2E/DX2 analytically  !
 ! D3    D(2,1,5,4)           -120.0            calculate D2E/DX2 analytically  !
 ! D4    D(3,1,5,4)            120.0            calculate D2E/DX2 analytically  !
 --------------------------------------------------------------------------------
 Trust Radius=3.00D-01 FncErr=1.00D-07 GrdErr=1.00D-07
 Number of steps in this run=      2 maximum allowed number of steps=      2.
 GradGradGradGradGradGradGradGradGradGradGradGradGradGradGradGradGradGrad

                          Input orientation:                          
 ---------------------------------------------------------------------
 Center     Atomic      Atomic             Coordinates (Angstroms)
 Number     Number       Type             X           Y           Z
 ---------------------------------------------------------------------
      1          6           0       -0.263672    0.839844    0.000000
      2          1           0        0.100124   -0.189167   -0.000001
      3          1           0        0.100144    1.354342    0.891146
      4          1           0        0.100142    1.354343   -0.891146
      5          1           0       -1.355098    0.839857    0.000001
 ---------------------------------------------------------------------
                    Distance matrix (angstroms):
                    1          2          3          4          5
     1  C    0.000000
     2  H    1.091426   0.000000
     3  H    1.091426   1.782292   0.000000
     4  H    1.091426   1.782292   1.782292   0.000000
     5  H    1.091426   1.782292   1.782292   1.782292   0.000000
 Stoichiometry    CH4
 Framework group  TD[O(C),4C3(H)]
 Deg. of freedom     1
 Full point group                 TD      NOp  24
 Largest Abelian subgroup         D2      NOp   4
 Largest concise Abelian subgroup D2      NOp   4
                         Standard orientation:                         
 ---------------------------------------------------------------------
 Center     Atomic      Atomic             Coordinates (Angstroms)
 Number     Number       Type             X           Y           Z
 ---------------------------------------------------------------------
      1          6           0        0.000000    0.000000    0.000000
      2          1           0        0.630135    0.630135    0.630135
      3          1           0       -0.630135   -0.630135    0.630135
      4          1           0       -0.630135    0.630135   -0.630135
      5          1           0        0.630135   -0.630135   -0.630135
 ---------------------------------------------------------------------
 Rotational constants (GHZ):    157.8608652    157.8608652    157.8608652
 Standard basis: 6-31G(d,p) (6D, 7F)
 There are    11 symmetry adapted cartesian basis functions of A   symmetry.
 There are     8 symmetry adapted cartesian basis functions of B1  symmetry.
 There are     8 symmetry adapted cartesian basis functions of B2  symmetry.
 There are     8 symmetry adapted cartesian basis functions of B3  symmetry.
 There are    11 symmetry adapted basis functions of A   symmetry.
 There are     8 symmetry adapted basis functions of B1  symmetry.
 There are     8 symmetry adapted basis functions of B2  symmetry.
 There are     8 symmetry adapted basis functions of B3  symmetry.
    35 basis functions,    56 primitive gaussians,    35 cartesian basis functions
     5 alpha electrons        5 beta electrons
       nuclear repulsion energy        13.4178313390 Hartrees.
 NAtoms=    5 NActive=    5 NUniq=    2 SFac= 4.00D+00 NAtFMM=   60 NAOKFM=F Big=F
 Integral buffers will be    131072 words long.
 Raffenetti 2 integral format.
 Two-electron integral symmetry is turned on.
 Nuclear repulsion after empirical dispersion term =       13.4174309126 Hartrees.
 One-electron integrals computed using PRISM.
 NBasis=    35 RedAO= T EigKep=  2.32D-02  NBF=    11     8     8     8
 NBsUse=    35 1.00D-06 EigRej= -1.00D+00 NBFU=    11     8     8     8
 Initial guess from the checkpoint file:  "wmethane.chk"
 B after Tr=     0.000000    0.000000    0.000000
         Rot=    1.000000    0.000000    0.000000    0.000000 Ang=   0.00 deg.
 Initial guess orbital symmetries:
       Occupied  (A1) (A1) (T2) (T2) (T2)
       Virtual   (A1) (T2) (T2) (T2) (T2) (T2) (T2) (T2) (T2) (T2)
                 (A1) (A1) (E) (E) (T1) (T1) (T1) (T2) (T2) (T2)
                 (T2) (T2) (T2) (E) (E) (A1) (T2) (T2) (T2) (A1)
 Keep R1 ints in memory in symmetry-blocked form, NReq=1285714.
 Requested convergence on RMS density matrix=1.00D-08 within 128 cycles.
 Requested convergence on MAX density matrix=1.00D-06.
 Requested convergence on             energy=1.00D-06.
 No special actions if energy rises.
 Skip diagonalization as Alpha Fock matrix is already diagonal.
 SCF Done:  E(RwB97XD) =  -40.5071430710     A.U. after    1 cycles
            NFock=  1  Conv=0.00D+00     -V/T= 2.0108
 DoSCS=F DFT=T ScalE2(SS,OS)=  1.000000  1.000000
 Range of M.O.s used for correlation:     1    35
 NBasis=    35 NAE=     5 NBE=     5 NFC=     0 NFV=     0
 NROrb=     35 NOA=     5 NOB=     5 NVA=    30 NVB=    30
 Symmetrizing basis deriv contribution to polar:
 IMax=3 JMax=2 DiffMx= 0.00D+00
 G2DrvN: will do     6 centers at a time, making    1 passes.
 Calling FoFCou, ICntrl=  3107 FMM=F I1Cent=   0 AccDes= 0.00D+00.
 End of G2Drv F.D. properties file   721 does not exist.
 End of G2Drv F.D. properties file   722 does not exist.
 End of G2Drv F.D. properties file   788 does not exist.
          IDoAtm=11111
          Differentiating once with respect to electric field.
                with respect to dipole field.
          Differentiating once with respect to nuclear coordinates.
 Keep R1 ints in memory in symmetry-blocked form, NReq=1261572.
          There are     9 degrees of freedom in the 1st order CPHF.  IDoFFX=4 NUNeed=     9.
      9 vectors produced by pass  0 Test12= 1.67D-15 1.11D-08 XBig12= 3.74D+00 1.11D+00.
 AX will form     9 AO Fock derivatives at one time.
      9 vectors produced by pass  1 Test12= 1.67D-15 1.11D-08 XBig12= 8.14D-02 1.23D-01.
      9 vectors produced by pass  2 Test12= 1.67D-15 1.11D-08 XBig12= 6.41D-04 1.21D-02.
      9 vectors produced by pass  3 Test12= 1.67D-15 1.11D-08 XBig12= 1.82D-06 5.14D-04.
      9 vectors produced by pass  4 Test12= 1.67D-15 1.11D-08 XBig12= 3.08D-09 2.10D-05.
      9 vectors produced by pass  5 Test12= 1.67D-15 1.11D-08 XBig12= 3.91D-12 6.93D-07.
      4 vectors produced by pass  6 Test12= 1.67D-15 1.11D-08 XBig12= 4.36D-15 2.14D-08.
 InvSVY:  IOpt=1 It=  1 EMax= 4.44D-16
 Solved reduced A of dimension    58 with     9 vectors.
 Isotropic polarizability for W=    0.000000       12.78 Bohr**3.
 End of Minotr F.D. properties file   721 does not exist.
 End of Minotr F.D. properties file   722 does not exist.
 End of Minotr F.D. properties file   788 does not exist.

 **********************************************************************

            Population analysis using the SCF density.

 **********************************************************************

 Orbital symmetries:
       Occupied  (A1) (A1) (T2) (T2) (T2)
       Virtual   (A1) (T2) (T2) (T2) (T2) (T2) (T2) (T2) (T2) (T2)
                 (A1) (A1) (E) (E) (T1) (T1) (T1) (T2) (T2) (T2)
                 (T2) (T2) (T2) (E) (E) (A1) (T2) (T2) (T2) (A1)
 The electronic state is 1-A1.
 Alpha  occ. eigenvalues --  -10.27592  -0.78741  -0.47184  -0.47184  -0.47184
 Alpha virt. eigenvalues --    0.20453   0.26042   0.26042   0.26042   0.61845
 Alpha virt. eigenvalues --    0.61845   0.61845   0.97348   0.97348   0.97348
 Alpha virt. eigenvalues --    1.02263   1.18752   1.44654   1.44654   2.13936
 Alpha virt. eigenvalues --    2.13936   2.13936   2.14532   2.14532   2.14532
 Alpha virt. eigenvalues --    2.72316   2.72316   2.72316   3.00379   3.00379
 Alpha virt. eigenvalues --    3.21556   3.51870   3.51870   3.51870   4.52042
          Condensed to atoms (all electrons):
               1          2          3          4          5
     1  C    4.963494   0.393176   0.393176   0.393176   0.393176
     2  H    0.393176   0.550321  -0.025849  -0.025849  -0.025849
     3  H    0.393176  -0.025849   0.550321  -0.025849  -0.025849
     4  H    0.393176  -0.025849  -0.025849   0.550321  -0.025849
     5  H    0.393176  -0.025849  -0.025849  -0.025849   0.550321
 Mulliken charges:
               1
     1  C   -0.536198
     2  H    0.134050
     3  H    0.134050
     4  H    0.134050
     5  H    0.134050
 Sum of Mulliken charges =   0.00000
 Mulliken charges with hydrogens summed into heavy atoms:
               1
     1  C    0.000000
 APT charges:
               1
     1  C   -0.019940
     2  H    0.004985
     3  H    0.004985
     4  H    0.004985
     5  H    0.004985
 Sum of APT charges =   0.00000
 APT charges with hydrogens summed into heavy atoms:
               1
     1  C    0.000000
 Electronic spatial extent (au):  <R**2>=             35.3190
 Charge=              0.0000 electrons
 Dipole moment (field-independent basis, Debye):
    X=              0.0000    Y=              0.0000    Z=              0.0000  Tot=              0.0000
 Quadrupole moment (field-independent basis, Debye-Ang):
   XX=             -8.2062   YY=             -8.2062   ZZ=             -8.2062
   XY=              0.0000   XZ=              0.0000   YZ=              0.0000
 Traceless Quadrupole moment (field-independent basis, Debye-Ang):
   XX=              0.0000   YY=              0.0000   ZZ=              0.0000
   XY=              0.0000   XZ=              0.0000   YZ=              0.0000
 Octapole moment (field-independent basis, Debye-Ang**2):
  XXX=              0.0000  YYY=              0.0000  ZZZ=              0.0000  XYY=              0.0000
  XXY=              0.0000  XXZ=              0.0000  XZZ=              0.0000  YZZ=              0.0000
  YYZ=              0.0000  XYZ=              0.7371
 Hexadecapole moment (field-independent basis, Debye-Ang**3):
 XXXX=            -15.7114 YYYY=            -15.7114 ZZZZ=            -15.7114 XXXY=              0.0000
 XXXZ=              0.0000 YYYX=              0.0000 YYYZ=              0.0000 ZZZX=              0.0000
 ZZZY=              0.0000 XXYY=             -4.7474 XXZZ=             -4.7474 YYZZ=             -4.7474
 XXYZ=              0.0000 YYXZ=              0.0000 ZZXY=              0.0000
 N-N= 1.341743091256D+01 E-N=-1.198955138940D+02  KE= 4.007516117724D+01
 Symmetry A    KE= 3.430979802682D+01
 Symmetry B1   KE= 1.921787716805D+00
 Symmetry B2   KE= 1.921787716805D+00
 Symmetry B3   KE= 1.921787716805D+00
  Exact polarizability:  12.785   0.000  12.785   0.000   0.000  12.785
 Approx polarizability:  11.949   0.000  11.949   0.000   0.000  11.949
 Calling FoFJK, ICntrl=    100127 FMM=F ISym2X=1 I1Cent= 0 IOpClX= 0 NMat=1 NMatS=1 NMatT=0.
 Full mass-weighted force constant matrix:
 Low frequencies ---    0.0010    0.0015    0.0015   81.2177   81.2177   81.2177
 Low frequencies --- 1359.5634 1359.5634 1359.5634
 Diagonal vibrational polarizability:
        0.3137852       0.3137852       0.3137852
 Harmonic frequencies (cm**-1), IR intensities (KM/Mole), Raman scattering
 activities (A**4/AMU), depolarization ratios for plane and unpolarized
 incident light, reduced masses (AMU), force constants (mDyne/A),
 and normal coordinates:
                      1                      2                      3
                     T2                     T2                     T2
 Frequencies --   1359.5634              1359.5634              1359.5634
 Red. masses --      1.1784                 1.1784                 1.1784
 Frc consts  --      1.2833                 1.2833                 1.2833
 IR Inten    --     17.3190                17.3190                17.3190
  Atom  AN      X      Y      Z        X      Y      Z        X      Y      Z
     1   6     0.12  -0.01  -0.01     0.00  -0.09   0.09     0.01   0.09   0.09
     2   1    -0.41   0.24   0.24     0.00   0.43  -0.43     0.29  -0.07  -0.07
     3   1    -0.37   0.28  -0.18    -0.33   0.10  -0.10    -0.04  -0.40  -0.45
     4   1    -0.37  -0.18   0.28     0.33   0.09  -0.10    -0.04  -0.45  -0.40
     5   1    -0.33  -0.22  -0.22     0.00   0.43  -0.43    -0.37  -0.12  -0.12
                      4                      5                      6
                      E                      E                     A1
 Frequencies --   1582.2912              1582.2912              3056.0182
 Red. masses --      1.0078                 1.0078                 1.0078
 Frc consts  --      1.4866                 1.4866                 5.5456
 IR Inten    --      0.0000                 0.0000                 0.0000
  Atom  AN      X      Y      Z        X      Y      Z        X      Y      Z
     1   6     0.00   0.00   0.00     0.00   0.00   0.00     0.00   0.00   0.00
     2   1     0.41  -0.20  -0.20     0.00  -0.35   0.35    -0.29  -0.29  -0.29
     3   1    -0.41   0.20  -0.20     0.00   0.35   0.35     0.29   0.29  -0.29
     4   1    -0.41  -0.20   0.20     0.00  -0.35  -0.35     0.29  -0.29   0.29
     5   1     0.41   0.20   0.20     0.00   0.35  -0.35    -0.29   0.29   0.29
                      7                      8                      9
                     T2                     T2                     T2
 Frequencies --   3186.5551              3186.5551              3186.5551
 Red. masses --      1.1022                 1.1022                 1.1022
 Frc consts  --      6.5941                 6.5941                 6.5941
 IR Inten    --     23.2567                23.2567                23.2567
  Atom  AN      X      Y      Z        X      Y      Z        X      Y      Z
     1   6     0.00  -0.05  -0.08     0.00  -0.08   0.05     0.09   0.00   0.00
     2   1     0.41   0.40   0.40     0.09   0.07   0.10    -0.26  -0.28  -0.28
     3   1    -0.08  -0.09   0.06     0.41   0.39  -0.40    -0.28  -0.29   0.29
     4   1     0.09  -0.10   0.08    -0.40   0.39  -0.39    -0.28   0.29  -0.29
     5   1    -0.40   0.39   0.38    -0.08   0.07   0.09    -0.29   0.30   0.30

 -------------------
 - Thermochemistry -
 -------------------
 Temperature   298.150 Kelvin.  Pressure   1.00000 Atm.
 Atom     1 has atomic number  6 and mass  12.00000
 Atom     2 has atomic number  1 and mass   1.00783
 Atom     3 has atomic number  1 and mass   1.00783
 Atom     4 has atomic number  1 and mass   1.00783
 Atom     5 has atomic number  1 and mass   1.00783
 Molecular mass:    16.03130 amu.
 Principal axes and moments of inertia in atomic units:
                           1         2         3
     Eigenvalues --    11.43248  11.43248  11.43248
           X            0.97782  -0.20730  -0.02994
           Y            0.20195   0.89524   0.39720
           Z           -0.05554  -0.39443   0.91724
 This molecule is a spherical top.
 Rotational symmetry number 12.
 Rotational temperatures (Kelvin)      7.57612     7.57612     7.57612
 Rotational constants (GHZ):         157.86087   157.86087   157.86087
 Zero-point vibrational energy     118782.9 (Joules/Mol)
                                   28.38980 (Kcal/Mol)
 Vibrational temperatures:   1956.11  1956.11  1956.11  2276.56  2276.56
          (Kelvin)           4396.92  4584.74  4584.74  4584.74
 
 Zero-point correction=                           0.045242 (Hartree/Particle)
 Thermal correction to Energy=                    0.048108
 Thermal correction to Enthalpy=                  0.049052
 Thermal correction to Gibbs Free Energy=         0.027923
 Sum of electronic and zero-point Energies=            -40.461901
 Sum of electronic and thermal Energies=               -40.459035
 Sum of electronic and thermal Enthalpies=             -40.458091
 Sum of electronic and thermal Free Energies=          -40.479220
 
                     E (Thermal)             CV                S
                      KCal/Mol        Cal/Mol-Kelvin    Cal/Mol-Kelvin
 Total                   30.188              6.438             44.469
 Electronic               0.000              0.000              0.000
 Translational            0.889              2.981             34.261
 Rotational               0.889              2.981             10.128
 Vibrational             28.411              0.477              0.080
                       Q            Log10(Q)             Ln(Q)
 Total Bot       0.143286D-12        -12.843796        -29.573934
 Total V=0       0.924802D+08          7.966049         18.342505
 Vib (Bot)       0.155747D-20        -20.807581        -47.911225
 Vib (V=0)       0.100523D+01          0.002265          0.005214
 Electronic      0.100000D+01          0.000000          0.000000
 Translational   0.252295D+07          6.401908         14.740939
 Rotational      0.364650D+02          1.561876          3.596352
 ***** Axes restored to original set *****
 -------------------------------------------------------------------
 Center     Atomic                   Forces (Hartrees/Bohr)
 Number     Number              X              Y              Z
 -------------------------------------------------------------------
      1        6           0.000000000    0.000000000    0.000000000
      2        1          -0.000046883    0.000132609    0.000000000
      3        1          -0.000046885   -0.000066304   -0.000114842
      4        1          -0.000046885   -0.000066304    0.000114842
      5        1           0.000140652   -0.000000002    0.000000000
 -------------------------------------------------------------------
 Cartesian Forces:  Max     0.000140652 RMS     0.000072633
 FormGI is forming the generalized inverse of G from B-inverse, IUseBI=4.

 GradGradGradGradGradGradGradGradGradGradGradGradGradGradGradGradGradGrad
 Berny optimization.
 Internal  Forces:  Max     0.000140652 RMS     0.000075182
 Search for a local minimum.
 Step number   1 out of a maximum of    2
 All quantities printed in internal units (Hartrees-Bohrs-Radians)
 Second derivative matrix not updated -- analytic derivatives used.
 The second derivative matrix:
                          R1        R2        R3        R4        A1
           R1           0.35269
           R2           0.00117   0.35269
           R3           0.00117   0.00117   0.35269
           R4           0.00117   0.00117   0.00117   0.35269
           A1           0.00187   0.00187  -0.00118  -0.00257   0.02005
           A2           0.00294  -0.00076   0.00327  -0.00545  -0.00891
           A3           0.00574  -0.00461  -0.00510   0.00396  -0.01329
           A4          -0.00076   0.00294   0.00327  -0.00545  -0.00891
           A5          -0.00461   0.00574  -0.00510   0.00396  -0.01329
           A6          -0.00518  -0.00518   0.00484   0.00553   0.02436
           D1          -0.00363  -0.00363  -0.00256   0.00982  -0.01364
           D2           0.00299   0.00299  -0.00768   0.00171   0.00827
           D3          -0.00393   0.00692  -0.00384   0.00085   0.00414
           D4          -0.00692   0.00393   0.00384  -0.00085  -0.00414
                          A2        A3        A4        A5        A6
           A2           0.03778
           A3          -0.02297   0.07382
           A4          -0.00213   0.02527   0.03778
           A5           0.02527  -0.03582  -0.02297   0.07382
           A6          -0.02904  -0.02701  -0.02904  -0.02701   0.08775
           D1          -0.01092   0.01487  -0.01092   0.01487   0.00574
           D2          -0.00950   0.00699  -0.00950   0.00699  -0.00324
           D3          -0.01442  -0.00053   0.00492   0.00752  -0.00162
           D4          -0.00492  -0.00752   0.01442   0.00053   0.00162
                          D1        D2        D3        D4
           D1           0.03008
           D2           0.00151   0.01869
           D3           0.00075   0.00935   0.01898
           D4          -0.00075  -0.00935   0.00964   0.01898
 ITU=  0
     Eigenvalues ---    0.03839   0.04325   0.06571   0.13354   0.13408
     Eigenvalues ---    0.35236   0.35237   0.35262   0.35620
 Angle between quadratic step and forces=   0.00 degrees.
 Linear search not attempted -- first point.
 Iteration  1 RMS(Cart)=  0.00021107 RMS(Int)=  0.00000000
 Iteration  2 RMS(Cart)=  0.00000000 RMS(Int)=  0.00000000
 ClnCor:  largest displacement from symmetrization is 8.00D-13 for atom     5.
 Variable       Old X    -DE/DX   Delta X   Delta X   Delta X     New X
                                 (Linear)    (Quad)   (Total)
    R1        2.06250  -0.00014   0.00000  -0.00039  -0.00039   2.06210
    R2        2.06250  -0.00014   0.00000  -0.00039  -0.00039   2.06210
    R3        2.06250  -0.00014   0.00000  -0.00039  -0.00039   2.06210
    R4        2.06250  -0.00014   0.00000  -0.00039  -0.00039   2.06210
    A1        1.91063   0.00000   0.00000   0.00000   0.00000   1.91063
    A2        1.91063   0.00000   0.00000   0.00000   0.00000   1.91063
    A3        1.91063   0.00000   0.00000   0.00000   0.00000   1.91063
    A4        1.91063   0.00000   0.00000   0.00000   0.00000   1.91063
    A5        1.91063   0.00000   0.00000   0.00000   0.00000   1.91063
    A6        1.91063   0.00000   0.00000   0.00000   0.00000   1.91063
    D1       -2.09440   0.00000   0.00000   0.00000   0.00000  -2.09440
    D2        2.09440   0.00000   0.00000   0.00000   0.00000   2.09440
    D3       -2.09440   0.00000   0.00000   0.00000   0.00000  -2.09440
    D4        2.09440   0.00000   0.00000   0.00000   0.00000   2.09440
         Item               Value     Threshold  Converged?
 Maximum Force            0.000141     0.000450     YES
 RMS     Force            0.000075     0.000300     YES
 Maximum Displacement     0.000395     0.001800     YES
 RMS     Displacement     0.000211     0.001200     YES
 Predicted change in Energy=-1.110800D-07
 Optimization completed.
    -- Stationary point found.
                           ----------------------------
                           !   Optimized Parameters   !
                           ! (Angstroms and Degrees)  !
 --------------------------                            --------------------------
 ! Name  Definition              Value          Derivative Info.                !
 --------------------------------------------------------------------------------
 ! R1    R(1,2)                  1.0914         -DE/DX =   -0.0001              !
 ! R2    R(1,3)                  1.0914         -DE/DX =   -0.0001              !
 ! R3    R(1,4)                  1.0914         -DE/DX =   -0.0001              !
 ! R4    R(1,5)                  1.0914         -DE/DX =   -0.0001              !
 ! A1    A(2,1,3)              109.4712         -DE/DX =    0.0                 !
 ! A2    A(2,1,4)              109.4712         -DE/DX =    0.0                 !
 ! A3    A(2,1,5)              109.4712         -DE/DX =    0.0                 !
 ! A4    A(3,1,4)              109.4712         -DE/DX =    0.0                 !
 ! A5    A(3,1,5)              109.4712         -DE/DX =    0.0                 !
 ! A6    A(4,1,5)              109.4712         -DE/DX =    0.0                 !
 ! D1    D(2,1,4,3)           -120.0            -DE/DX =    0.0                 !
 ! D2    D(2,1,5,3)            120.0            -DE/DX =    0.0                 !
 ! D3    D(2,1,5,4)           -120.0            -DE/DX =    0.0                 !
 ! D4    D(3,1,5,4)            120.0            -DE/DX =    0.0                 !
 --------------------------------------------------------------------------------
 GradGradGradGradGradGradGradGradGradGradGradGradGradGradGradGradGradGrad

 1\1\GINC-ACCEL04\Freq\RwB97XD\6-31G(d,p)\C1H4\JWCHOI\12-Nov-2018\0\\#N
  Geom=AllCheck Guess=TCheck SCRF=Check GenChk RwB97XD/6-31G(d,p) Freq\
 \Title Card Required\\0,1\C,-0.263671869,0.839843696,0.\H,0.1001244387
 ,-0.1891673094,-0.000000895\H,0.1001438658,1.3543420718,0.8911458551\H
 ,0.1001424042,1.3543431053,-0.8911458551\H,-1.3550981846,0.8398569163,
 0.000000895\\Version=EM64L-G09RevD.01\State=1-A1\HF=-40.5071431\RMSD=0
 .000e+00\RMSF=7.263e-05\ZeroPoint=0.045242\Thermal=0.0481079\Dipole=0.
 ,0.,0.\DipoleDeriv=-0.0199402,0.,0.,0.,-0.0199402,0.,0.,0.,-0.0199402,
 0.0531843,0.0681596,0.,0.0681596,-0.1155105,-0.0000002,0.,-0.0000002,0
 .0772814,0.0531817,-0.0340812,-0.0590309,-0.0340812,0.0290848,-0.08347
 98,-0.0590309,-0.0834798,-0.0673113,0.0531819,-0.0340811,0.0590306,-0.
 0340811,0.0290846,0.08348,0.0590306,0.08348,-0.0673113,-0.1396077,0.00
 00026,0.0000002,0.0000026,0.0772814,0.,0.0000002,0.,0.0772814\Polar=12
 .7848525,0.,12.7848525,0.,0.,12.7848525\PG=TD [O(C1),4C3(H1)]\NImag=0\
 \0.56365075,0.,0.56365075,0.,0.,0.56365075,-0.07847396,0.08829602,0.00
 000008,0.08012558,0.08829602,-0.29700630,-0.00000022,-0.09636333,0.318
 62449,0.00000008,-0.00000022,-0.04725780,-0.00000008,0.00000024,0.0460
 5731,-0.07847729,-0.04414976,-0.07647036,0.00325240,0.00485630,0.01107
 473,0.08012922,-0.04414976,-0.10969320,-0.10814231,-0.01201972,-0.0121
 1533,-0.02557629,0.04818357,0.11419722,-0.07647036,-0.10814231,-0.2345
 6757,0.00133169,0.00198222,0.00150649,0.08345720,0.11802291,0.25048094
 ,-0.07847704,-0.04414967,0.07647005,0.00325238,0.00485631,-0.01107473,
 0.00325265,0.00716310,-0.00974355,0.08012895,-0.04414967,-0.10969345,0
 .10814253,-0.01201968,-0.01211536,0.02557630,0.00716307,0.00831732,-0.
 01377908,0.04818348,0.11419749,0.07647005,0.10814253,-0.23456757,-0.00
 133171,-0.00198225,0.00150654,0.00974352,0.01377910,-0.01892641,-0.083
 45686,-0.11802315,0.25048094,-0.32822245,0.00000340,0.00000023,-0.0081
 5640,-0.00164531,0.,-0.00815697,0.00082281,0.00142502,-0.00815693,0.00
 082281,-0.00142501,0.35269276,0.00000340,-0.04725780,0.,0.03210672,0.0
 0261250,-0.00000002,-0.01605318,-0.00070601,0.00191626,-0.01605322,-0.
 00070601,-0.00191623,-0.00000371,0.04605731,0.00000023,0.,-0.04725780,
 0.00000002,0.,-0.00181255,-0.02780510,0.00191660,0.00150654,0.02780509
 ,-0.00191660,0.00150649,-0.00000025,0.,0.04605731\\0.,0.,0.,0.00004688
 ,-0.00013261,0.,0.00004689,0.00006630,0.00011484,0.00004688,0.00006630
 ,-0.00011484,-0.00014065,0.,0.\\\@


 You can't act like a skunk without someone's getting wind of it.
 -- Lorene Workman
 Job cpu time:       0 days  0 hours  0 minutes 47.6 seconds.
 File lengths (MBytes):  RWF=      5 Int=      0 D2E=      0 Chk=      1 Scr=      1
 Normal termination of Gaussian 09 at Mon Nov 12 02:10:16 2018.
