 Entering Gaussian System, Link 0=g09
 Initial command:
 /share/apps/g09.d01/g09/l1.exe "/state/partition1/506.comchem3.khu.ac.kr/Gau-28420.inp" -scrdir="/state/partition1/506.comchem3.khu.ac.kr/"
 Entering Link 1 = /share/apps/g09.d01/g09/l1.exe PID=     28421.
  
 Copyright (c) 1988,1990,1992,1993,1995,1998,2003,2009,2013,
            Gaussian, Inc.  All Rights Reserved.
  
 This is part of the Gaussian(R) 09 program.  It is based on
 the Gaussian(R) 03 system (copyright 2003, Gaussian, Inc.),
 the Gaussian(R) 98 system (copyright 1998, Gaussian, Inc.),
 the Gaussian(R) 94 system (copyright 1995, Gaussian, Inc.),
 the Gaussian 92(TM) system (copyright 1992, Gaussian, Inc.),
 the Gaussian 90(TM) system (copyright 1990, Gaussian, Inc.),
 the Gaussian 88(TM) system (copyright 1988, Gaussian, Inc.),
 the Gaussian 86(TM) system (copyright 1986, Carnegie Mellon
 University), and the Gaussian 82(TM) system (copyright 1983,
 Carnegie Mellon University). Gaussian is a federally registered
 trademark of Gaussian, Inc.
  
 This software contains proprietary and confidential information,
 including trade secrets, belonging to Gaussian, Inc.
  
 This software is provided under written license and may be
 used, copied, transmitted, or stored only in accord with that
 written license.
  
 The following legend is applicable only to US Government
 contracts under FAR:
  
                    RESTRICTED RIGHTS LEGEND
  
 Use, reproduction and disclosure by the US Government is
 subject to restrictions as set forth in subparagraphs (a)
 and (c) of the Commercial Computer Software - Restricted
 Rights clause in FAR 52.227-19.
  
 Gaussian, Inc.
 340 Quinnipiac St., Bldg. 40, Wallingford CT 06492
  
  
 ---------------------------------------------------------------
 Warning -- This program may not be used in any manner that
 competes with the business of Gaussian, Inc. or will provide
 assistance to any competitor of Gaussian, Inc.  The licensee
 of this program is prohibited from giving any competitor of
 Gaussian, Inc. access to this program.  By using this program,
 the user acknowledges that Gaussian, Inc. is engaged in the
 business of creating and licensing software in the field of
 computational chemistry and represents and warrants to the
 licensee that it is not a competitor of Gaussian, Inc. and that
 it will not use this program in any manner prohibited above.
 ---------------------------------------------------------------
  

 Cite this work as:
 Gaussian 09, Revision D.01,
 M. J. Frisch, G. W. Trucks, H. B. Schlegel, G. E. Scuseria, 
 M. A. Robb, J. R. Cheeseman, G. Scalmani, V. Barone, B. Mennucci, 
 G. A. Petersson, H. Nakatsuji, M. Caricato, X. Li, H. P. Hratchian, 
 A. F. Izmaylov, J. Bloino, G. Zheng, J. L. Sonnenberg, M. Hada, 
 M. Ehara, K. Toyota, R. Fukuda, J. Hasegawa, M. Ishida, T. Nakajima, 
 Y. Honda, O. Kitao, H. Nakai, T. Vreven, J. A. Montgomery, Jr., 
 J. E. Peralta, F. Ogliaro, M. Bearpark, J. J. Heyd, E. Brothers, 
 K. N. Kudin, V. N. Staroverov, T. Keith, R. Kobayashi, J. Normand, 
 K. Raghavachari, A. Rendell, J. C. Burant, S. S. Iyengar, J. Tomasi, 
 M. Cossi, N. Rega, J. M. Millam, M. Klene, J. E. Knox, J. B. Cross, 
 V. Bakken, C. Adamo, J. Jaramillo, R. Gomperts, R. E. Stratmann, 
 O. Yazyev, A. J. Austin, R. Cammi, C. Pomelli, J. W. Ochterski, 
 R. L. Martin, K. Morokuma, V. G. Zakrzewski, G. A. Voth, 
 P. Salvador, J. J. Dannenberg, S. Dapprich, A. D. Daniels, 
 O. Farkas, J. B. Foresman, J. V. Ortiz, J. Cioslowski, 
 and D. J. Fox, Gaussian, Inc., Wallingford CT, 2013.
 
 ******************************************
 Gaussian 09:  EM64L-G09RevD.01 24-Apr-2013
                 9-Aug-2018 
 ******************************************
 %chk=311methane.chk
 %mem=8GB
 %nprocs=8
 Will use up to    8 processors via shared memory.
 ---------------------------------------------------------------
 #M06/6-311g(d,p) opt=(maxcycle=1024) freq=noraman int=ultrafine
 ---------------------------------------------------------------
 1/6=1024,14=-1,18=20,19=15,26=4,38=1/1,3;
 2/9=110,12=2,17=6,18=5,40=1/2;
 3/5=4,6=6,7=101,11=2,16=1,25=1,30=1,71=1,74=-54,75=-5/1,2,3;
 4//1;
 5/5=2,38=5/2;
 6/7=2,8=2,9=2,10=2,28=1/1;
 7//1,2,3,16;
 1/6=1024,14=-1,18=20,19=15,26=4/3(2);
 2/9=110/2;
 99//99;
 2/9=110/2;
 3/5=4,6=6,7=101,11=2,16=1,25=1,30=1,71=1,74=-54,75=-5/1,2,3;
 4/5=5,16=3,69=1/1;
 5/5=2,38=5/2;
 7//1,2,3,16;
 1/6=1024,14=-1,18=20,19=15,26=4/3(-5);
 2/9=110/2;
 6/7=2,8=2,9=2,10=2,19=2,28=1/1;
 99/9=1/99;
 -------------------
 Title Card Required
 -------------------
 Symbolic Z-matrix:
 Charge =  0 Multiplicity = 1
 C                    -0.26367   0.83984   0. 
 H                     0.09298  -0.16897   0. 
 H                     0.093     1.34424   0.87365 
 H                     0.093     1.34424  -0.87365 
 H                    -1.33367   0.83986   0. 
 

 GradGradGradGradGradGradGradGradGradGradGradGradGradGradGradGradGradGrad
 Berny optimization.
 Initialization pass.
                           ----------------------------
                           !    Initial Parameters    !
                           ! (Angstroms and Degrees)  !
 --------------------------                            --------------------------
 ! Name  Definition              Value          Derivative Info.                !
 --------------------------------------------------------------------------------
 ! R1    R(1,2)                  1.07           estimate D2E/DX2                !
 ! R2    R(1,3)                  1.07           estimate D2E/DX2                !
 ! R3    R(1,4)                  1.07           estimate D2E/DX2                !
 ! R4    R(1,5)                  1.07           estimate D2E/DX2                !
 ! A1    A(2,1,3)              109.4712         estimate D2E/DX2                !
 ! A2    A(2,1,4)              109.4712         estimate D2E/DX2                !
 ! A3    A(2,1,5)              109.4712         estimate D2E/DX2                !
 ! A4    A(3,1,4)              109.4713         estimate D2E/DX2                !
 ! A5    A(3,1,5)              109.4712         estimate D2E/DX2                !
 ! A6    A(4,1,5)              109.4712         estimate D2E/DX2                !
 ! D1    D(2,1,4,3)           -120.0            estimate D2E/DX2                !
 ! D2    D(2,1,5,3)            120.0            estimate D2E/DX2                !
 ! D3    D(2,1,5,4)           -120.0            estimate D2E/DX2                !
 ! D4    D(3,1,5,4)            120.0            estimate D2E/DX2                !
 --------------------------------------------------------------------------------
 Trust Radius=3.00D-01 FncErr=1.00D-07 GrdErr=1.00D-06
 Number of steps in this run=    100 maximum allowed number of steps=    100.
 GradGradGradGradGradGradGradGradGradGradGradGradGradGradGradGradGradGrad

                          Input orientation:                          
 ---------------------------------------------------------------------
 Center     Atomic      Atomic             Coordinates (Angstroms)
 Number     Number       Type             X           Y           Z
 ---------------------------------------------------------------------
      1          6           0       -0.263672    0.839844    0.000000
      2          1           0        0.092983   -0.168966    0.000000
      3          1           0        0.093001    1.344242    0.873652
      4          1           0        0.093001    1.344242   -0.873652
      5          1           0       -1.333672    0.839857    0.000000
 ---------------------------------------------------------------------
                    Distance matrix (angstroms):
                    1          2          3          4          5
     1  C    0.000000
     2  H    1.070000   0.000000
     3  H    1.070000   1.747302   0.000000
     4  H    1.070000   1.747302   1.747303   0.000000
     5  H    1.070000   1.747303   1.747303   1.747303   0.000000
 Stoichiometry    CH4
 Framework group  T[O(C),4C3(H)]
 Deg. of freedom     1
 Full point group                 T       NOp  12
 Largest Abelian subgroup         D2      NOp   4
 Largest concise Abelian subgroup D2      NOp   4
                         Standard orientation:                         
 ---------------------------------------------------------------------
 Center     Atomic      Atomic             Coordinates (Angstroms)
 Number     Number       Type             X           Y           Z
 ---------------------------------------------------------------------
      1          6           0        0.000000    0.000000    0.000000
      2          1           0        0.617765    0.617765    0.617765
      3          1           0       -0.617765   -0.617765    0.617765
      4          1           0       -0.617765    0.617765   -0.617765
      5          1           0        0.617765   -0.617765   -0.617765
 ---------------------------------------------------------------------
 Rotational constants (GHZ):    164.2463785    164.2463785    164.2463785
 Standard basis: 6-311G(d,p) (5D, 7F)
 There are    13 symmetry adapted cartesian basis functions of A   symmetry.
 There are    10 symmetry adapted cartesian basis functions of B1  symmetry.
 There are    10 symmetry adapted cartesian basis functions of B2  symmetry.
 There are    10 symmetry adapted cartesian basis functions of B3  symmetry.
 There are    12 symmetry adapted basis functions of A   symmetry.
 There are    10 symmetry adapted basis functions of B1  symmetry.
 There are    10 symmetry adapted basis functions of B2  symmetry.
 There are    10 symmetry adapted basis functions of B3  symmetry.
    42 basis functions,    64 primitive gaussians,    43 cartesian basis functions
     5 alpha electrons        5 beta electrons
       nuclear repulsion energy        13.6865185517 Hartrees.
 NAtoms=    5 NActive=    5 NUniq=    2 SFac= 4.00D+00 NAtFMM=   60 NAOKFM=F Big=F
 Integral buffers will be    131072 words long.
 Raffenetti 2 integral format.
 Two-electron integral symmetry is turned on.
 One-electron integrals computed using PRISM.
 NBasis=    42 RedAO= T EigKep=  1.16D-02  NBF=    12    10    10    10
 NBsUse=    42 1.00D-06 EigRej= -1.00D+00 NBFU=    12    10    10    10
 ExpMin= 1.03D-01 ExpMax= 4.56D+03 ExpMxC= 6.82D+02 IAcc=3 IRadAn=         5 AccDes= 0.00D+00
 Harris functional with IExCor= 1009 and IRadAn=       5 diagonalized for initial guess.
 HarFok:  IExCor= 1009 AccDes= 0.00D+00 IRadAn=         5 IDoV= 1 UseB2=F ITyADJ=14
 ICtDFT=  3500011 ScaDFX=  1.000000  1.000000  1.000000  1.000000
 FoFCou: FMM=F IPFlag=           0 FMFlag=      100000 FMFlg1=           0
         NFxFlg=           0 DoJE=T BraDBF=F KetDBF=T FulRan=T
         wScrn=  0.000000 ICntrl=     500 IOpCl=  0 I1Cent=   200000004 NGrid=           0
         NMat0=    1 NMatS0=      1 NMatT0=    0 NMatD0=    1 NMtDS0=    0 NMtDT0=    0
 Petite list used in FoFCou.
 Initial guess orbital symmetries:
       Occupied  (A) (A) (T) (T) (T)
       Virtual   (A) (T) (T) (T) (T) (T) (T) (A) (T) (T) (T) (A)
                 (E) (E) (T) (T) (T) (T) (T) (T) (T) (T) (T) (A)
                 (E) (E) (T) (T) (T) (T) (T) (T) (A) (T) (T) (T)
                 (A)
 The electronic state of the initial guess is 1-A.
 Keep R1 ints in memory in symmetry-blocked form, NReq=1300075.
 Requested convergence on RMS density matrix=1.00D-08 within 128 cycles.
 Requested convergence on MAX density matrix=1.00D-06.
 Requested convergence on             energy=1.00D-06.
 No special actions if energy rises.
 Integral accuracy reduced to 1.0D-05 until final iterations.
 Initial convergence to 1.0D-05 achieved.  Increase integral accuracy.
 SCF Done:  E(RM06) =  -40.4871212917     A.U. after    9 cycles
            NFock=  9  Conv=0.20D-08     -V/T= 2.0026

 **********************************************************************

            Population analysis using the SCF density.

 **********************************************************************

 Orbital symmetries:
       Occupied  (A) (A) (T) (T) (T)
       Virtual   (A) (T) (T) (T) (T) (T) (T) (A) (T) (T) (T) (A)
                 (E) (E) (T) (T) (T) (T) (T) (T) (T) (T) (T) (A)
                 (E) (E) (T) (T) (T) (T) (T) (T) (A) (T) (T) (T)
                 (A)
 The electronic state is 1-A.
 Alpha  occ. eigenvalues --  -10.20685  -0.71125  -0.40648  -0.40648  -0.40648
 Alpha virt. eigenvalues --    0.06154   0.11756   0.11756   0.11756   0.28677
 Alpha virt. eigenvalues --    0.28677   0.28677   0.55462   0.57383   0.57383
 Alpha virt. eigenvalues --    0.57383   0.72021   0.95856   0.95856   1.45785
 Alpha virt. eigenvalues --    1.45785   1.45785   1.46409   1.46409   1.46409
 Alpha virt. eigenvalues --    1.88147   1.88147   1.88147   2.11150   2.33700
 Alpha virt. eigenvalues --    2.33700   2.34047   2.34047   2.34047   2.52840
 Alpha virt. eigenvalues --    2.52840   2.52840   2.85429   3.75210   3.75210
 Alpha virt. eigenvalues --    3.75210  24.02818
          Condensed to atoms (all electrons):
               1          2          3          4          5
     1  C    4.827235   0.404118   0.404118   0.404118   0.404118
     2  H    0.404118   0.560902  -0.025316  -0.025316  -0.025316
     3  H    0.404118  -0.025316   0.560902  -0.025316  -0.025316
     4  H    0.404118  -0.025316  -0.025316   0.560902  -0.025316
     5  H    0.404118  -0.025316  -0.025316  -0.025316   0.560902
 Mulliken charges:
               1
     1  C   -0.443706
     2  H    0.110927
     3  H    0.110927
     4  H    0.110927
     5  H    0.110927
 Sum of Mulliken charges =   0.00000
 Mulliken charges with hydrogens summed into heavy atoms:
               1
     1  C    0.000000
 Electronic spatial extent (au):  <R**2>=             34.9306
 Charge=              0.0000 electrons
 Dipole moment (field-independent basis, Debye):
    X=              0.0000    Y=              0.0000    Z=              0.0000  Tot=              0.0000
 Quadrupole moment (field-independent basis, Debye-Ang):
   XX=             -8.3287   YY=             -8.3287   ZZ=             -8.3287
   XY=              0.0000   XZ=              0.0000   YZ=              0.0000
 Traceless Quadrupole moment (field-independent basis, Debye-Ang):
   XX=              0.0000   YY=              0.0000   ZZ=              0.0000
   XY=              0.0000   XZ=              0.0000   YZ=              0.0000
 Octapole moment (field-independent basis, Debye-Ang**2):
  XXX=              0.0000  YYY=              0.0000  ZZZ=              0.0000  XYY=              0.0000
  XXY=              0.0000  XXZ=              0.0000  XZZ=              0.0000  YZZ=              0.0000
  YYZ=              0.0000  XYZ=              0.6789
 Hexadecapole moment (field-independent basis, Debye-Ang**3):
 XXXX=            -16.0314 YYYY=            -16.0314 ZZZZ=            -16.0314 XXXY=              0.0000
 XXXZ=              0.0000 YYYX=              0.0000 YYYZ=              0.0000 ZZZX=              0.0000
 ZZZY=              0.0000 XXYY=             -4.8729 XXZZ=             -4.8729 YYZZ=             -4.8729
 XXYZ=              0.0000 YYXZ=              0.0000 ZZXY=              0.0000
 N-N= 1.368651855168D+01 E-N=-1.206961242374D+02  KE= 4.038205708436D+01
 Symmetry A    KE= 3.443808187094D+01
 Symmetry B1   KE= 1.981325071140D+00
 Symmetry B2   KE= 1.981325071140D+00
 Symmetry B3   KE= 1.981325071140D+00
 Calling FoFJK, ICntrl=      2127 FMM=F ISym2X=1 I1Cent= 0 IOpClX= 0 NMat=1 NMatS=1 NMatT=0.
 ***** Axes restored to original set *****
 -------------------------------------------------------------------
 Center     Atomic                   Forces (Hartrees/Bohr)
 Number     Number              X              Y              Z
 -------------------------------------------------------------------
      1        6           0.000000000    0.000000000    0.000000000
      2        1           0.004795321   -0.013563738   -0.000000012
      3        1           0.004795577    0.006781775    0.011746491
      4        1           0.004795558    0.006781789   -0.011746491
      5        1          -0.014386455    0.000000174    0.000000012
 -------------------------------------------------------------------
 Cartesian Forces:  Max     0.014386455 RMS     0.007429133

 GradGradGradGradGradGradGradGradGradGradGradGradGradGradGradGradGradGrad
 Berny optimization.
 FormGI is forming the generalized inverse of G from B-inverse, IUseBI=4.
 Internal  Forces:  Max     0.014386455 RMS     0.007689884
 Search for a local minimum.
 Step number   1 out of a maximum of  100
 All quantities printed in internal units (Hartrees-Bohrs-Radians)
 Mixed Optimization -- RFO/linear search
 Second derivative matrix not updated -- first step.
 The second derivative matrix:
                          R1        R2        R3        R4        A1
           R1           0.37230
           R2           0.00000   0.37230
           R3           0.00000   0.00000   0.37230
           R4           0.00000   0.00000   0.00000   0.37230
           A1           0.00000   0.00000   0.00000   0.00000   0.16000
           A2           0.00000   0.00000   0.00000   0.00000   0.00000
           A3           0.00000   0.00000   0.00000   0.00000   0.00000
           A4           0.00000   0.00000   0.00000   0.00000   0.00000
           A5           0.00000   0.00000   0.00000   0.00000   0.00000
           A6           0.00000   0.00000   0.00000   0.00000   0.00000
           D1           0.00000   0.00000   0.00000   0.00000   0.00000
           D2           0.00000   0.00000   0.00000   0.00000   0.00000
           D3           0.00000   0.00000   0.00000   0.00000   0.00000
           D4           0.00000   0.00000   0.00000   0.00000   0.00000
                          A2        A3        A4        A5        A6
           A2           0.16000
           A3           0.00000   0.16000
           A4           0.00000   0.00000   0.16000
           A5           0.00000   0.00000   0.00000   0.16000
           A6           0.00000   0.00000   0.00000   0.00000   0.16000
           D1           0.00000   0.00000   0.00000   0.00000   0.00000
           D2           0.00000   0.00000   0.00000   0.00000   0.00000
           D3           0.00000   0.00000   0.00000   0.00000   0.00000
           D4           0.00000   0.00000   0.00000   0.00000   0.00000
                          D1        D2        D3        D4
           D1           0.00499
           D2           0.00000   0.00499
           D3           0.00000   0.00000   0.00499
           D4           0.00000   0.00000   0.00000   0.00499
 ITU=  0
     Eigenvalues ---    0.05269   0.05891   0.08766   0.16000   0.16000
     Eigenvalues ---    0.37230   0.37230   0.37230   0.37230
 RFO step:  Lambda=-2.21056008D-03 EMin= 5.26881007D-02
 Linear search not attempted -- first point.
 Iteration  1 RMS(Cart)=  0.02053310 RMS(Int)=  0.00000000
 Iteration  2 RMS(Cart)=  0.00000000 RMS(Int)=  0.00000000
 ClnCor:  largest displacement from symmetrization is 6.87D-15 for atom     4.
 Variable       Old X    -DE/DX   Delta X   Delta X   Delta X     New X
                                 (Linear)    (Quad)   (Total)
    R1        2.02201   0.01439   0.00000   0.03841   0.03841   2.06042
    R2        2.02201   0.01439   0.00000   0.03841   0.03841   2.06042
    R3        2.02201   0.01439   0.00000   0.03841   0.03841   2.06042
    R4        2.02201   0.01439   0.00000   0.03841   0.03841   2.06042
    A1        1.91063   0.00000   0.00000   0.00000   0.00000   1.91063
    A2        1.91063   0.00000   0.00000   0.00000   0.00000   1.91063
    A3        1.91063   0.00000   0.00000   0.00000   0.00000   1.91063
    A4        1.91063   0.00000   0.00000   0.00000   0.00000   1.91063
    A5        1.91063   0.00000   0.00000   0.00000   0.00000   1.91063
    A6        1.91063   0.00000   0.00000   0.00000   0.00000   1.91063
    D1       -2.09440   0.00000   0.00000   0.00000   0.00000  -2.09440
    D2        2.09440   0.00000   0.00000   0.00000   0.00000   2.09440
    D3       -2.09440   0.00000   0.00000   0.00000   0.00000  -2.09440
    D4        2.09440   0.00000   0.00000   0.00000   0.00000   2.09440
         Item               Value     Threshold  Converged?
 Maximum Force            0.014386     0.000450     NO 
 RMS     Force            0.007690     0.000300     NO 
 Maximum Displacement     0.038414     0.001800     NO 
 RMS     Displacement     0.020533     0.001200     NO 
 Predicted change in Energy=-1.111804D-03
 GradGradGradGradGradGradGradGradGradGradGradGradGradGradGradGradGradGrad

                          Input orientation:                          
 ---------------------------------------------------------------------
 Center     Atomic      Atomic             Coordinates (Angstroms)
 Number     Number       Type             X           Y           Z
 ---------------------------------------------------------------------
      1          6           0       -0.263672    0.839844    0.000000
      2          1           0        0.099758   -0.188132   -0.000001
      3          1           0        0.099778    1.353824    0.890249
      4          1           0        0.099776    1.353825   -0.890249
      5          1           0       -1.354000    0.839857    0.000001
 ---------------------------------------------------------------------
                    Distance matrix (angstroms):
                    1          2          3          4          5
     1  C    0.000000
     2  H    1.090328   0.000000
     3  H    1.090328   1.780498   0.000000
     4  H    1.090328   1.780498   1.780498   0.000000
     5  H    1.090328   1.780498   1.780498   1.780498   0.000000
 Stoichiometry    CH4
 Framework group  TD[O(C),4C3(H)]
 Deg. of freedom     1
 Full point group                 TD      NOp  24
 Omega: Change in point group or standard orientation.

 Old FWG=T    [O(C1),4C3(H1)]
 New FWG=TD   [O(C1),4C3(H1)]
 Largest Abelian subgroup         D2      NOp   4
 Largest concise Abelian subgroup D2      NOp   4
                         Standard orientation:                         
 ---------------------------------------------------------------------
 Center     Atomic      Atomic             Coordinates (Angstroms)
 Number     Number       Type             X           Y           Z
 ---------------------------------------------------------------------
      1          6           0        0.000000    0.000000    0.000000
      2          1           0        0.629501    0.629501    0.629501
      3          1           0       -0.629501   -0.629501    0.629501
      4          1           0       -0.629501    0.629501   -0.629501
      5          1           0        0.629501   -0.629501   -0.629501
 ---------------------------------------------------------------------
 Rotational constants (GHZ):    158.1791422    158.1791422    158.1791422
 Standard basis: 6-311G(d,p) (5D, 7F)
 There are    13 symmetry adapted cartesian basis functions of A   symmetry.
 There are    10 symmetry adapted cartesian basis functions of B1  symmetry.
 There are    10 symmetry adapted cartesian basis functions of B2  symmetry.
 There are    10 symmetry adapted cartesian basis functions of B3  symmetry.
 There are    12 symmetry adapted basis functions of A   symmetry.
 There are    10 symmetry adapted basis functions of B1  symmetry.
 There are    10 symmetry adapted basis functions of B2  symmetry.
 There are    10 symmetry adapted basis functions of B3  symmetry.
    42 basis functions,    64 primitive gaussians,    43 cartesian basis functions
     5 alpha electrons        5 beta electrons
       nuclear repulsion energy        13.4313509570 Hartrees.
 NAtoms=    5 NActive=    5 NUniq=    2 SFac= 4.00D+00 NAtFMM=   60 NAOKFM=F Big=F
 Integral buffers will be    131072 words long.
 Raffenetti 2 integral format.
 Two-electron integral symmetry is turned on.
 One-electron integrals computed using PRISM.
 NBasis=    42 RedAO= T EigKep=  1.28D-02  NBF=    12    10    10    10
 NBsUse=    42 1.00D-06 EigRej= -1.00D+00 NBFU=    12    10    10    10
 Initial guess from the checkpoint file:  "311methane.chk"
 B after Tr=     0.000000    0.000000    0.000000
         Rot=    1.000000    0.000000    0.000000    0.000000 Ang=   0.00 deg.
 Initial guess orbital symmetries:
       Occupied  (A1) (A1) (T2) (T2) (T2)
       Virtual   (A1) (A1) (E) (E) (A1) (A1) (E) (E) (A1) (A1)
                 (T2) (T2) (T2) (T2) (T1) (T2) (T2) (T2) (T2) (T2)
                 (T2) (T2) (T2) (T1) (T2) (T2) (T2) (T2) (T2) (T2)
                 (T2) (T2) (T1) (T2) (T2) (T2) (T2)
 ExpMin= 1.03D-01 ExpMax= 4.56D+03 ExpMxC= 6.82D+02 IAcc=2 IRadAn=         4 AccDes= 0.00D+00
 Harris functional with IExCor= 1009 and IRadAn=       4 diagonalized for initial guess.
 HarFok:  IExCor= 1009 AccDes= 0.00D+00 IRadAn=         4 IDoV= 1 UseB2=F ITyADJ=14
 ICtDFT=  3500011 ScaDFX=  1.000000  1.000000  1.000000  1.000000
 FoFCou: FMM=F IPFlag=           0 FMFlag=      100000 FMFlg1=           0
         NFxFlg=           0 DoJE=T BraDBF=F KetDBF=T FulRan=T
         wScrn=  0.000000 ICntrl=     500 IOpCl=  0 I1Cent=   200000004 NGrid=           0
         NMat0=    1 NMatS0=      1 NMatT0=    0 NMatD0=    1 NMtDS0=    0 NMtDT0=    0
 Petite list used in FoFCou.
 Keep R1 ints in memory in symmetry-blocked form, NReq=1300327.
 Requested convergence on RMS density matrix=1.00D-08 within 128 cycles.
 Requested convergence on MAX density matrix=1.00D-06.
 Requested convergence on             energy=1.00D-06.
 No special actions if energy rises.
 Integral accuracy reduced to 1.0D-05 until final iterations.
 Initial convergence to 1.0D-05 achieved.  Increase integral accuracy.
 SCF Done:  E(RM06) =  -40.4882274099     A.U. after    9 cycles
            NFock=  9  Conv=0.23D-08     -V/T= 2.0053
 Calling FoFJK, ICntrl=      2127 FMM=F ISym2X=1 I1Cent= 0 IOpClX= 0 NMat=1 NMatS=1 NMatT=0.
 ***** Axes restored to original set *****
 -------------------------------------------------------------------
 Center     Atomic                   Forces (Hartrees/Bohr)
 Number     Number              X              Y              Z
 -------------------------------------------------------------------
      1        6           0.000000000    0.000000000    0.000000000
      2        1           0.000090615   -0.000256307    0.000000000
      3        1           0.000090619    0.000128152    0.000221967
      4        1           0.000090619    0.000128152   -0.000221967
      5        1          -0.000271853    0.000000003    0.000000000
 -------------------------------------------------------------------
 Cartesian Forces:  Max     0.000271853 RMS     0.000140384

 GradGradGradGradGradGradGradGradGradGradGradGradGradGradGradGradGradGrad
 Berny optimization.
 Using GEDIIS/GDIIS optimizer.
 FormGI is forming the generalized inverse of G from B-inverse, IUseBI=4.
 Internal  Forces:  Max     0.000271853 RMS     0.000145312
 Search for a local minimum.
 Step number   2 out of a maximum of  100
 All quantities printed in internal units (Hartrees-Bohrs-Radians)
 Mixed Optimization -- En-DIIS/RFO-DIIS
 Update second derivatives using D2CorX and points    1    2
 DE= -1.11D-03 DEPred=-1.11D-03 R= 9.95D-01
 TightC=F SS=  1.41D+00  RLast= 7.68D-02 DXNew= 5.0454D-01 2.3048D-01
 Trust test= 9.95D-01 RLast= 7.68D-02 DXMaxT set to 3.00D-01
 The second derivative matrix:
                          R1        R2        R3        R4        A1
           R1           0.37108
           R2          -0.00122   0.37108
           R3          -0.00122  -0.00122   0.37108
           R4          -0.00122  -0.00122  -0.00122   0.37108
           A1           0.00000   0.00000   0.00000   0.00000   0.16000
           A2           0.00000   0.00000   0.00000   0.00000   0.00000
           A3           0.00000   0.00000   0.00000   0.00000   0.00000
           A4           0.00000   0.00000   0.00000   0.00000   0.00000
           A5           0.00000   0.00000   0.00000   0.00000   0.00000
           A6           0.00000   0.00000   0.00000   0.00000   0.00000
           D1           0.00000   0.00000   0.00000   0.00000   0.00000
           D2           0.00000   0.00000   0.00000   0.00000   0.00000
           D3           0.00000   0.00000   0.00000   0.00000   0.00000
           D4           0.00000   0.00000   0.00000   0.00000   0.00000
                          A2        A3        A4        A5        A6
           A2           0.16000
           A3           0.00000   0.16000
           A4           0.00000   0.00000   0.16000
           A5           0.00000   0.00000   0.00000   0.16000
           A6           0.00000   0.00000   0.00000   0.00000   0.16000
           D1           0.00000   0.00000   0.00000   0.00000   0.00000
           D2           0.00000   0.00000   0.00000   0.00000   0.00000
           D3           0.00000   0.00000   0.00000   0.00000   0.00000
           D4           0.00000   0.00000   0.00000   0.00000   0.00000
                          D1        D2        D3        D4
           D1           0.00499
           D2           0.00000   0.00499
           D3           0.00000   0.00000   0.00499
           D4           0.00000   0.00000   0.00000   0.00499
 ITU=  1  0
 Use linear search instead of GDIIS.
     Eigenvalues ---    0.05269   0.05891   0.08766   0.16000   0.16000
     Eigenvalues ---    0.36743   0.37230   0.37230   0.37230
 RFO step:  Lambda= 0.00000000D+00 EMin= 5.26881007D-02
 Quartic linear search produced a step of  0.02040.
 Iteration  1 RMS(Cart)=  0.00041896 RMS(Int)=  0.00000000
 Iteration  2 RMS(Cart)=  0.00000000 RMS(Int)=  0.00000000
 ClnCor:  largest displacement from symmetrization is 1.71D-14 for atom     5.
 Variable       Old X    -DE/DX   Delta X   Delta X   Delta X     New X
                                 (Linear)    (Quad)   (Total)
    R1        2.06042   0.00027   0.00078   0.00000   0.00078   2.06120
    R2        2.06042   0.00027   0.00078   0.00000   0.00078   2.06120
    R3        2.06042   0.00027   0.00078   0.00000   0.00078   2.06120
    R4        2.06042   0.00027   0.00078   0.00000   0.00078   2.06120
    A1        1.91063   0.00000   0.00000   0.00000   0.00000   1.91063
    A2        1.91063   0.00000   0.00000   0.00000   0.00000   1.91063
    A3        1.91063   0.00000   0.00000   0.00000   0.00000   1.91063
    A4        1.91063   0.00000   0.00000   0.00000   0.00000   1.91063
    A5        1.91063   0.00000   0.00000   0.00000   0.00000   1.91063
    A6        1.91063   0.00000   0.00000   0.00000   0.00000   1.91063
    D1       -2.09440   0.00000   0.00000   0.00000   0.00000  -2.09440
    D2        2.09440   0.00000   0.00000   0.00000   0.00000   2.09440
    D3       -2.09440   0.00000   0.00000   0.00000   0.00000  -2.09440
    D4        2.09440   0.00000   0.00000   0.00000   0.00000   2.09440
         Item               Value     Threshold  Converged?
 Maximum Force            0.000272     0.000450     YES
 RMS     Force            0.000145     0.000300     YES
 Maximum Displacement     0.000784     0.001800     YES
 RMS     Displacement     0.000419     0.001200     YES
 Predicted change in Energy=-4.008523D-07
 Optimization completed.
    -- Stationary point found.
                           ----------------------------
                           !   Optimized Parameters   !
                           ! (Angstroms and Degrees)  !
 --------------------------                            --------------------------
 ! Name  Definition              Value          Derivative Info.                !
 --------------------------------------------------------------------------------
 ! R1    R(1,2)                  1.0903         -DE/DX =    0.0003              !
 ! R2    R(1,3)                  1.0903         -DE/DX =    0.0003              !
 ! R3    R(1,4)                  1.0903         -DE/DX =    0.0003              !
 ! R4    R(1,5)                  1.0903         -DE/DX =    0.0003              !
 ! A1    A(2,1,3)              109.4712         -DE/DX =    0.0                 !
 ! A2    A(2,1,4)              109.4712         -DE/DX =    0.0                 !
 ! A3    A(2,1,5)              109.4712         -DE/DX =    0.0                 !
 ! A4    A(3,1,4)              109.4712         -DE/DX =    0.0                 !
 ! A5    A(3,1,5)              109.4712         -DE/DX =    0.0                 !
 ! A6    A(4,1,5)              109.4712         -DE/DX =    0.0                 !
 ! D1    D(2,1,4,3)           -120.0            -DE/DX =    0.0                 !
 ! D2    D(2,1,5,3)            120.0            -DE/DX =    0.0                 !
 ! D3    D(2,1,5,4)           -120.0            -DE/DX =    0.0                 !
 ! D4    D(3,1,5,4)            120.0            -DE/DX =    0.0                 !
 --------------------------------------------------------------------------------
 GradGradGradGradGradGradGradGradGradGradGradGradGradGradGradGradGradGrad

                          Input orientation:                          
 ---------------------------------------------------------------------
 Center     Atomic      Atomic             Coordinates (Angstroms)
 Number     Number       Type             X           Y           Z
 ---------------------------------------------------------------------
      1          6           0       -0.263672    0.839844    0.000000
      2          1           0        0.099758   -0.188132   -0.000001
      3          1           0        0.099778    1.353824    0.890249
      4          1           0        0.099776    1.353825   -0.890249
      5          1           0       -1.354000    0.839857    0.000001
 ---------------------------------------------------------------------
                    Distance matrix (angstroms):
                    1          2          3          4          5
     1  C    0.000000
     2  H    1.090328   0.000000
     3  H    1.090328   1.780498   0.000000
     4  H    1.090328   1.780498   1.780498   0.000000
     5  H    1.090328   1.780498   1.780498   1.780498   0.000000
 Stoichiometry    CH4
 Framework group  TD[O(C),4C3(H)]
 Deg. of freedom     1
 Full point group                 TD      NOp  24
 Largest Abelian subgroup         D2      NOp   4
 Largest concise Abelian subgroup D2      NOp   4
                         Standard orientation:                         
 ---------------------------------------------------------------------
 Center     Atomic      Atomic             Coordinates (Angstroms)
 Number     Number       Type             X           Y           Z
 ---------------------------------------------------------------------
      1          6           0        0.000000    0.000000    0.000000
      2          1           0        0.629501    0.629501    0.629501
      3          1           0       -0.629501   -0.629501    0.629501
      4          1           0       -0.629501    0.629501   -0.629501
      5          1           0        0.629501   -0.629501   -0.629501
 ---------------------------------------------------------------------
 Rotational constants (GHZ):    158.1791422    158.1791422    158.1791422

 **********************************************************************

            Population analysis using the SCF density.

 **********************************************************************

 Orbital symmetries:
       Occupied  (A1) (A1) (T2) (T2) (T2)
       Virtual   (A1) (T2) (T2) (T2) (T2) (T2) (T2) (A1) (T2) (T2)
                 (T2) (A1) (E) (E) (T1) (T1) (T1) (T2) (T2) (T2)
                 (T2) (T2) (T2) (A1) (E) (E) (T2) (T2) (T2) (T2)
                 (T2) (T2) (A1) (T2) (T2) (T2) (A1)
 The electronic state is 1-A1.
 Alpha  occ. eigenvalues --  -10.21569  -0.70497  -0.40300  -0.40300  -0.40300
 Alpha virt. eigenvalues --    0.05899   0.11517   0.11517   0.11517   0.28414
 Alpha virt. eigenvalues --    0.28414   0.28414   0.53259   0.56551   0.56551
 Alpha virt. eigenvalues --    0.56551   0.72372   0.95643   0.95643   1.44877
 Alpha virt. eigenvalues --    1.44877   1.44877   1.45734   1.45734   1.45734
 Alpha virt. eigenvalues --    1.87000   1.87000   1.87000   2.08837   2.30545
 Alpha virt. eigenvalues --    2.30545   2.34513   2.34513   2.34513   2.48717
 Alpha virt. eigenvalues --    2.48717   2.48717   2.84151   3.71104   3.71104
 Alpha virt. eigenvalues --    3.71104  23.96480
          Condensed to atoms (all electrons):
               1          2          3          4          5
     1  C    4.851157   0.400475   0.400475   0.400475   0.400475
     2  H    0.400475   0.561733  -0.025157  -0.025157  -0.025157
     3  H    0.400475  -0.025157   0.561733  -0.025157  -0.025157
     4  H    0.400475  -0.025157  -0.025157   0.561733  -0.025157
     5  H    0.400475  -0.025157  -0.025157  -0.025157   0.561733
 Mulliken charges:
               1
     1  C   -0.453056
     2  H    0.113264
     3  H    0.113264
     4  H    0.113264
     5  H    0.113264
 Sum of Mulliken charges =   0.00000
 Mulliken charges with hydrogens summed into heavy atoms:
               1
     1  C    0.000000
 Electronic spatial extent (au):  <R**2>=             35.6954
 Charge=              0.0000 electrons
 Dipole moment (field-independent basis, Debye):
    X=              0.0000    Y=              0.0000    Z=              0.0000  Tot=              0.0000
 Quadrupole moment (field-independent basis, Debye-Ang):
   XX=             -8.3903   YY=             -8.3903   ZZ=             -8.3903
   XY=              0.0000   XZ=              0.0000   YZ=              0.0000
 Traceless Quadrupole moment (field-independent basis, Debye-Ang):
   XX=              0.0000   YY=              0.0000   ZZ=              0.0000
   XY=              0.0000   XZ=              0.0000   YZ=              0.0000
 Octapole moment (field-independent basis, Debye-Ang**2):
  XXX=              0.0000  YYY=              0.0000  ZZZ=              0.0000  XYY=              0.0000
  XXY=              0.0000  XXZ=              0.0000  XZZ=              0.0000  YZZ=              0.0000
  YYZ=              0.0000  XYZ=              0.7303
 Hexadecapole moment (field-independent basis, Debye-Ang**3):
 XXXX=            -16.5586 YYYY=            -16.5586 ZZZZ=            -16.5586 XXXY=              0.0000
 XXXZ=              0.0000 YYYX=              0.0000 YYYZ=              0.0000 ZZZX=              0.0000
 ZZZY=              0.0000 XXYY=             -5.0121 XXZZ=             -5.0121 YYZZ=             -5.0121
 XXYZ=              0.0000 YYXZ=              0.0000 ZZXY=              0.0000
 N-N= 1.343135095697D+01 E-N=-1.201107400733D+02  KE= 4.027334588020D+01
 Symmetry A    KE= 3.442292404302D+01
 Symmetry B1   KE= 1.950140612391D+00
 Symmetry B2   KE= 1.950140612391D+00
 Symmetry B3   KE= 1.950140612391D+00
 1\1\GINC-W8-4\FOpt\RM06\6-311G(d,p)\C1H4\JWCHOI\09-Aug-2018\0\\#M06/6-
 311g(d,p) opt=(maxcycle=1024) freq=noraman int=ultrafine\\Title Card R
 equired\\0,1\C,-0.263671869,0.839843696,0.\H,0.0997582516,-0.188131536
 ,-0.0000008941\H,0.0997776591,1.3538241923,0.8902488529\H,0.099776199,
 1.3538252247,-0.8902488529\H,-1.3539995858,0.839856903,0.0000008941\\V
 ersion=EM64L-G09RevD.01\State=1-A1\HF=-40.4882274\RMSD=2.270e-09\RMSF=
 1.404e-04\Dipole=0.,0.,0.\Quadrupole=0.,0.,0.,0.,0.,0.\PG=TD [O(C1),4C
 3(H1)]\\@


 HEAVEN'S NET CASTS WIDE.
 THOUGH ITS MESHES ARE COARSE, NOTHING SLIPS THROUGH.

                                          -- LAO-TSU
 Job cpu time:       0 days  0 hours  0 minutes 26.4 seconds.
 File lengths (MBytes):  RWF=      5 Int=      0 D2E=      0 Chk=      2 Scr=      1
 Normal termination of Gaussian 09 at Thu Aug  9 15:50:21 2018.
 Link1:  Proceeding to internal job step number  2.
 ---------------------------------------------------------------------
 #N Geom=AllCheck Guess=TCheck SCRF=Check GenChk RM06/6-311G(d,p) Freq
 ---------------------------------------------------------------------
 1/6=1024,10=4,29=7,30=1,38=1,40=1/1,3;
 2/12=2,40=1/2;
 3/5=4,6=6,7=101,11=2,14=-4,16=1,25=1,30=1,70=2,71=2,74=-54,75=-5,116=1,140=1/1,2,3;
 4/5=101/1;
 5/5=2,98=1/2;
 8/6=4,10=90,11=11/1;
 11/6=1,8=1,9=11,15=111,16=1/1,2,10;
 10/6=1/2;
 6/7=2,8=2,9=2,10=2,18=1,28=1/1;
 7/8=1,10=1,25=1/1,2,3,16;
 1/6=1024,10=4,30=1/3;
 99//99;
 Structure from the checkpoint file:  "311methane.chk"
 -------------------
 Title Card Required
 -------------------
 Charge =  0 Multiplicity = 1
 Redundant internal coordinates found in file.
 C,0,-0.263671869,0.839843696,0.
 H,0,0.0997582516,-0.188131536,-0.0000008941
 H,0,0.0997776591,1.3538241923,0.8902488529
 H,0,0.099776199,1.3538252247,-0.8902488529
 H,0,-1.3539995858,0.839856903,0.0000008941
 Recover connectivity data from disk.

 GradGradGradGradGradGradGradGradGradGradGradGradGradGradGradGradGradGrad
 Berny optimization.
 Initialization pass.
                           ----------------------------
                           !    Initial Parameters    !
                           ! (Angstroms and Degrees)  !
 --------------------------                            --------------------------
 ! Name  Definition              Value          Derivative Info.                !
 --------------------------------------------------------------------------------
 ! R1    R(1,2)                  1.0903         calculate D2E/DX2 analytically  !
 ! R2    R(1,3)                  1.0903         calculate D2E/DX2 analytically  !
 ! R3    R(1,4)                  1.0903         calculate D2E/DX2 analytically  !
 ! R4    R(1,5)                  1.0903         calculate D2E/DX2 analytically  !
 ! A1    A(2,1,3)              109.4712         calculate D2E/DX2 analytically  !
 ! A2    A(2,1,4)              109.4712         calculate D2E/DX2 analytically  !
 ! A3    A(2,1,5)              109.4712         calculate D2E/DX2 analytically  !
 ! A4    A(3,1,4)              109.4712         calculate D2E/DX2 analytically  !
 ! A5    A(3,1,5)              109.4712         calculate D2E/DX2 analytically  !
 ! A6    A(4,1,5)              109.4712         calculate D2E/DX2 analytically  !
 ! D1    D(2,1,4,3)           -120.0            calculate D2E/DX2 analytically  !
 ! D2    D(2,1,5,3)            120.0            calculate D2E/DX2 analytically  !
 ! D3    D(2,1,5,4)           -120.0            calculate D2E/DX2 analytically  !
 ! D4    D(3,1,5,4)            120.0            calculate D2E/DX2 analytically  !
 --------------------------------------------------------------------------------
 Trust Radius=3.00D-01 FncErr=1.00D-07 GrdErr=1.00D-07
 Number of steps in this run=      2 maximum allowed number of steps=      2.
 GradGradGradGradGradGradGradGradGradGradGradGradGradGradGradGradGradGrad

                          Input orientation:                          
 ---------------------------------------------------------------------
 Center     Atomic      Atomic             Coordinates (Angstroms)
 Number     Number       Type             X           Y           Z
 ---------------------------------------------------------------------
      1          6           0       -0.263672    0.839844    0.000000
      2          1           0        0.099758   -0.188132   -0.000001
      3          1           0        0.099778    1.353824    0.890249
      4          1           0        0.099776    1.353825   -0.890249
      5          1           0       -1.354000    0.839857    0.000001
 ---------------------------------------------------------------------
                    Distance matrix (angstroms):
                    1          2          3          4          5
     1  C    0.000000
     2  H    1.090328   0.000000
     3  H    1.090328   1.780498   0.000000
     4  H    1.090328   1.780498   1.780498   0.000000
     5  H    1.090328   1.780498   1.780498   1.780498   0.000000
 Stoichiometry    CH4
 Framework group  TD[O(C),4C3(H)]
 Deg. of freedom     1
 Full point group                 TD      NOp  24
 Largest Abelian subgroup         D2      NOp   4
 Largest concise Abelian subgroup D2      NOp   4
                         Standard orientation:                         
 ---------------------------------------------------------------------
 Center     Atomic      Atomic             Coordinates (Angstroms)
 Number     Number       Type             X           Y           Z
 ---------------------------------------------------------------------
      1          6           0        0.000000    0.000000    0.000000
      2          1           0        0.629501    0.629501    0.629501
      3          1           0       -0.629501   -0.629501    0.629501
      4          1           0       -0.629501    0.629501   -0.629501
      5          1           0        0.629501   -0.629501   -0.629501
 ---------------------------------------------------------------------
 Rotational constants (GHZ):    158.1791422    158.1791422    158.1791422
 Standard basis: 6-311G(d,p) (5D, 7F)
 There are    13 symmetry adapted cartesian basis functions of A   symmetry.
 There are    10 symmetry adapted cartesian basis functions of B1  symmetry.
 There are    10 symmetry adapted cartesian basis functions of B2  symmetry.
 There are    10 symmetry adapted cartesian basis functions of B3  symmetry.
 There are    12 symmetry adapted basis functions of A   symmetry.
 There are    10 symmetry adapted basis functions of B1  symmetry.
 There are    10 symmetry adapted basis functions of B2  symmetry.
 There are    10 symmetry adapted basis functions of B3  symmetry.
    42 basis functions,    64 primitive gaussians,    43 cartesian basis functions
     5 alpha electrons        5 beta electrons
       nuclear repulsion energy        13.4313509570 Hartrees.
 NAtoms=    5 NActive=    5 NUniq=    2 SFac= 4.00D+00 NAtFMM=   60 NAOKFM=F Big=F
 Integral buffers will be    131072 words long.
 Raffenetti 2 integral format.
 Two-electron integral symmetry is turned on.
 One-electron integrals computed using PRISM.
 NBasis=    42 RedAO= T EigKep=  1.28D-02  NBF=    12    10    10    10
 NBsUse=    42 1.00D-06 EigRej= -1.00D+00 NBFU=    12    10    10    10
 Initial guess from the checkpoint file:  "311methane.chk"
 B after Tr=     0.000000    0.000000    0.000000
         Rot=    1.000000    0.000000    0.000000    0.000000 Ang=   0.00 deg.
 Initial guess orbital symmetries:
       Occupied  (A1) (A1) (T2) (T2) (T2)
       Virtual   (A1) (T2) (T2) (T2) (T2) (T2) (T2) (A1) (T2) (T2)
                 (T2) (A1) (E) (E) (T1) (T1) (T1) (T2) (T2) (T2)
                 (T2) (T2) (T2) (A1) (E) (E) (T2) (T2) (T2) (T2)
                 (T2) (T2) (A1) (T2) (T2) (T2) (A1)
 Keep R1 ints in memory in symmetry-blocked form, NReq=1300327.
 Requested convergence on RMS density matrix=1.00D-08 within 128 cycles.
 Requested convergence on MAX density matrix=1.00D-06.
 Requested convergence on             energy=1.00D-06.
 No special actions if energy rises.
 SCF Done:  E(RM06) =  -40.4882274099     A.U. after    1 cycles
            NFock=  1  Conv=0.30D-09     -V/T= 2.0053
 DoSCS=F DFT=T ScalE2(SS,OS)=  1.000000  1.000000
 Range of M.O.s used for correlation:     1    42
 NBasis=    42 NAE=     5 NBE=     5 NFC=     0 NFV=     0
 NROrb=     42 NOA=     5 NOB=     5 NVA=    37 NVB=    37
 Symmetrizing basis deriv contribution to polar:
 IMax=3 JMax=2 DiffMx= 0.00D+00
 G2DrvN: will do     6 centers at a time, making    1 passes.
 Calling FoFCou, ICntrl=  3107 FMM=F I1Cent=   0 AccDes= 0.00D+00.
 End of G2Drv F.D. properties file   721 does not exist.
 End of G2Drv F.D. properties file   722 does not exist.
 End of G2Drv F.D. properties file   788 does not exist.
          IDoAtm=11111
          Differentiating once with respect to electric field.
                with respect to dipole field.
          Differentiating once with respect to nuclear coordinates.
 Keep R1 ints in memory in symmetry-blocked form, NReq=1274420.
          There are     9 degrees of freedom in the 1st order CPHF.  IDoFFX=4 NUNeed=     9.
      9 vectors produced by pass  0 Test12= 2.06D-15 1.11D-08 XBig12= 6.68D+00 1.31D+00.
 AX will form     9 AO Fock derivatives at one time.
      9 vectors produced by pass  1 Test12= 2.06D-15 1.11D-08 XBig12= 2.12D-01 1.97D-01.
      9 vectors produced by pass  2 Test12= 2.06D-15 1.11D-08 XBig12= 1.37D-03 1.77D-02.
      9 vectors produced by pass  3 Test12= 2.06D-15 1.11D-08 XBig12= 9.80D-06 1.17D-03.
      9 vectors produced by pass  4 Test12= 2.06D-15 1.11D-08 XBig12= 8.81D-09 3.68D-05.
      8 vectors produced by pass  5 Test12= 2.06D-15 1.11D-08 XBig12= 1.60D-11 1.71D-06.
      3 vectors produced by pass  6 Test12= 2.06D-15 1.11D-08 XBig12= 1.55D-14 5.36D-08.
 InvSVY:  IOpt=1 It=  1 EMax= 4.44D-16
 Solved reduced A of dimension    56 with     9 vectors.
 Isotropic polarizability for W=    0.000000       13.76 Bohr**3.
 End of Minotr F.D. properties file   721 does not exist.
 End of Minotr F.D. properties file   722 does not exist.
 End of Minotr F.D. properties file   788 does not exist.

 **********************************************************************

            Population analysis using the SCF density.

 **********************************************************************

 Orbital symmetries:
       Occupied  (A1) (A1) (T2) (T2) (T2)
       Virtual   (A1) (T2) (T2) (T2) (T2) (T2) (T2) (A1) (T2) (T2)
                 (T2) (A1) (E) (E) (T1) (T1) (T1) (T2) (T2) (T2)
                 (T2) (T2) (T2) (A1) (E) (E) (T2) (T2) (T2) (T2)
                 (T2) (T2) (A1) (T2) (T2) (T2) (A1)
 The electronic state is 1-A1.
 Alpha  occ. eigenvalues --  -10.21569  -0.70497  -0.40300  -0.40300  -0.40300
 Alpha virt. eigenvalues --    0.05899   0.11517   0.11517   0.11517   0.28414
 Alpha virt. eigenvalues --    0.28414   0.28414   0.53259   0.56551   0.56551
 Alpha virt. eigenvalues --    0.56551   0.72372   0.95643   0.95643   1.44877
 Alpha virt. eigenvalues --    1.44877   1.44877   1.45734   1.45734   1.45734
 Alpha virt. eigenvalues --    1.87000   1.87000   1.87000   2.08837   2.30545
 Alpha virt. eigenvalues --    2.30545   2.34513   2.34513   2.34513   2.48717
 Alpha virt. eigenvalues --    2.48717   2.48717   2.84151   3.71104   3.71104
 Alpha virt. eigenvalues --    3.71104  23.96480
          Condensed to atoms (all electrons):
               1          2          3          4          5
     1  C    4.851157   0.400475   0.400475   0.400475   0.400475
     2  H    0.400475   0.561733  -0.025157  -0.025157  -0.025157
     3  H    0.400475  -0.025157   0.561733  -0.025157  -0.025157
     4  H    0.400475  -0.025157  -0.025157   0.561733  -0.025157
     5  H    0.400475  -0.025157  -0.025157  -0.025157   0.561733
 Mulliken charges:
               1
     1  C   -0.453056
     2  H    0.113264
     3  H    0.113264
     4  H    0.113264
     5  H    0.113264
 Sum of Mulliken charges =   0.00000
 Mulliken charges with hydrogens summed into heavy atoms:
               1
     1  C    0.000000
 APT charges:
               1
     1  C   -0.034061
     2  H    0.008515
     3  H    0.008515
     4  H    0.008515
     5  H    0.008515
 Sum of APT charges =   0.00000
 APT charges with hydrogens summed into heavy atoms:
               1
     1  C    0.000000
 Electronic spatial extent (au):  <R**2>=             35.6954
 Charge=              0.0000 electrons
 Dipole moment (field-independent basis, Debye):
    X=              0.0000    Y=              0.0000    Z=              0.0000  Tot=              0.0000
 Quadrupole moment (field-independent basis, Debye-Ang):
   XX=             -8.3903   YY=             -8.3903   ZZ=             -8.3903
   XY=              0.0000   XZ=              0.0000   YZ=              0.0000
 Traceless Quadrupole moment (field-independent basis, Debye-Ang):
   XX=              0.0000   YY=              0.0000   ZZ=              0.0000
   XY=              0.0000   XZ=              0.0000   YZ=              0.0000
 Octapole moment (field-independent basis, Debye-Ang**2):
  XXX=              0.0000  YYY=              0.0000  ZZZ=              0.0000  XYY=              0.0000
  XXY=              0.0000  XXZ=              0.0000  XZZ=              0.0000  YZZ=              0.0000
  YYZ=              0.0000  XYZ=              0.7303
 Hexadecapole moment (field-independent basis, Debye-Ang**3):
 XXXX=            -16.5586 YYYY=            -16.5586 ZZZZ=            -16.5586 XXXY=              0.0000
 XXXZ=              0.0000 YYYX=              0.0000 YYYZ=              0.0000 ZZZX=              0.0000
 ZZZY=              0.0000 XXYY=             -5.0121 XXZZ=             -5.0121 YYZZ=             -5.0121
 XXYZ=              0.0000 YYXZ=              0.0000 ZZXY=              0.0000
 N-N= 1.343135095697D+01 E-N=-1.201107401743D+02  KE= 4.027334592533D+01
 Symmetry A    KE= 3.442292405997D+01
 Symmetry B1   KE= 1.950140621786D+00
 Symmetry B2   KE= 1.950140621786D+00
 Symmetry B3   KE= 1.950140621786D+00
  Exact polarizability:  13.762   0.000  13.762   0.000   0.000  13.762
 Approx polarizability:  16.396   0.000  16.396   0.000   0.000  16.396
 Calling FoFJK, ICntrl=    100127 FMM=F ISym2X=1 I1Cent= 0 IOpClX= 0 NMat=1 NMatS=1 NMatT=0.
 Full mass-weighted force constant matrix:
 Low frequencies ---   -6.0662   -6.0662   -6.0613   -0.0006   -0.0003   -0.0001
 Low frequencies --- 1309.5486 1309.5486 1309.5486
 Diagonal vibrational polarizability:
        0.3427073       0.3427073       0.3427073
 Harmonic frequencies (cm**-1), IR intensities (KM/Mole), Raman scattering
 activities (A**4/AMU), depolarization ratios for plane and unpolarized
 incident light, reduced masses (AMU), force constants (mDyne/A),
 and normal coordinates:
                      1                      2                      3
                     T2                     T2                     T2
 Frequencies --   1309.5486              1309.5486              1309.5486
 Red. masses --      1.1789                 1.1789                 1.1789
 Frc consts  --      1.1912                 1.1912                 1.1912
 IR Inten    --     18.2336                18.2336                18.2336
  Atom  AN      X      Y      Z        X      Y      Z        X      Y      Z
     1   6     0.00   0.00   0.12     0.10   0.08   0.00    -0.08   0.10   0.00
     2   1     0.23   0.23  -0.37    -0.13  -0.06   0.33     0.42  -0.43   0.03
     3   1    -0.23  -0.23  -0.37    -0.13  -0.06  -0.33     0.42  -0.43  -0.03
     4   1     0.23  -0.23  -0.37    -0.43  -0.42   0.03     0.06  -0.13  -0.33
     5   1    -0.23   0.23  -0.37    -0.43  -0.42  -0.03     0.06  -0.13   0.33
                      4                      5                      6
                      E                      E                     A1
 Frequencies --   1529.6998              1529.6998              3018.2818
 Red. masses --      1.0078                 1.0078                 1.0078
 Frc consts  --      1.3895                 1.3895                 5.4095
 IR Inten    --      0.0000                 0.0000                 0.0000
  Atom  AN      X      Y      Z        X      Y      Z        X      Y      Z
     1   6     0.00   0.00   0.00     0.00   0.00   0.00     0.00   0.00   0.00
     2   1    -0.20  -0.20   0.41    -0.35   0.35   0.00    -0.29  -0.29  -0.29
     3   1     0.20   0.20   0.41     0.35  -0.35   0.00     0.29   0.29  -0.29
     4   1     0.20  -0.20  -0.41     0.35   0.35   0.00     0.29  -0.29   0.29
     5   1    -0.20   0.20  -0.41    -0.35  -0.35   0.00    -0.29   0.29   0.29
                      7                      8                      9
                     T2                     T2                     T2
 Frequencies --   3148.9207              3148.9207              3148.9207
 Red. masses --      1.1017                 1.1017                 1.1017
 Frc consts  --      6.4364                 6.4364                 6.4364
 IR Inten    --     20.8468                20.8468                20.8468
  Atom  AN      X      Y      Z        X      Y      Z        X      Y      Z
     1   6     0.07  -0.06   0.00     0.06   0.07   0.00     0.00   0.00   0.09
     2   1    -0.03  -0.06  -0.05    -0.40  -0.40  -0.41    -0.29  -0.29  -0.27
     3   1    -0.03  -0.06   0.05    -0.40  -0.40   0.41     0.29   0.29  -0.28
     4   1    -0.40   0.40  -0.41     0.06  -0.03   0.05    -0.29   0.29  -0.28
     5   1    -0.40   0.40   0.41     0.06  -0.03  -0.05     0.29  -0.29  -0.28

 -------------------
 - Thermochemistry -
 -------------------
 Temperature   298.150 Kelvin.  Pressure   1.00000 Atm.
 Atom     1 has atomic number  6 and mass  12.00000
 Atom     2 has atomic number  1 and mass   1.00783
 Atom     3 has atomic number  1 and mass   1.00783
 Atom     4 has atomic number  1 and mass   1.00783
 Atom     5 has atomic number  1 and mass   1.00783
 Molecular mass:    16.03130 amu.
 Principal axes and moments of inertia in atomic units:
                           1         2         3
     Eigenvalues --    11.40948  11.40948  11.40948
           X           -0.18127   0.00000   0.98343
           Y            0.98343   0.00000   0.18127
           Z            0.00000   1.00000   0.00000
 This molecule is a spherical top.
 Rotational symmetry number 12.
 Rotational temperatures (Kelvin)      7.59139     7.59139     7.59139
 Rotational constants (GHZ):         158.17914   158.17914   158.17914
 Zero-point vibrational energy     116355.3 (Joules/Mol)
                                   27.80959 (Kcal/Mol)
 Vibrational temperatures:   1884.15  1884.15  1884.15  2200.89  2200.89
          (Kelvin)           4342.63  4530.59  4530.59  4530.59
 
 Zero-point correction=                           0.044317 (Hartree/Particle)
 Thermal correction to Energy=                    0.047191
 Thermal correction to Enthalpy=                  0.048135
 Thermal correction to Gibbs Free Energy=         0.027000
 Sum of electronic and zero-point Energies=            -40.443910
 Sum of electronic and thermal Energies=               -40.441036
 Sum of electronic and thermal Enthalpies=             -40.440092
 Sum of electronic and thermal Free Energies=          -40.461227
 
                     E (Thermal)             CV                S
                      KCal/Mol        Cal/Mol-Kelvin    Cal/Mol-Kelvin
 Total                   29.613              6.527             44.482
 Electronic               0.000              0.000              0.000
 Translational            0.889              2.981             34.261
 Rotational               0.889              2.981             10.122
 Vibrational             27.835              0.566              0.100
                       Q            Log10(Q)             Ln(Q)
 Total Bot       0.380906D-12        -12.419183        -28.596225
 Total V=0       0.923341D+08          7.965362         18.340924
 Vib (Bot)       0.415284D-20        -20.381655        -46.930494
 Vib (V=0)       0.100668D+01          0.002890          0.006654
 Electronic      0.100000D+01          0.000000          0.000000
 Translational   0.252295D+07          6.401908         14.740939
 Rotational      0.363550D+02          1.560564          3.593331
 ***** Axes restored to original set *****
 -------------------------------------------------------------------
 Center     Atomic                   Forces (Hartrees/Bohr)
 Number     Number              X              Y              Z
 -------------------------------------------------------------------
      1        6           0.000000000    0.000000000    0.000000000
      2        1           0.000090615   -0.000256307    0.000000000
      3        1           0.000090620    0.000128152    0.000221968
      4        1           0.000090619    0.000128152   -0.000221968
      5        1          -0.000271854    0.000000003    0.000000000
 -------------------------------------------------------------------
 Cartesian Forces:  Max     0.000271854 RMS     0.000140385
 FormGI is forming the generalized inverse of G from B-inverse, IUseBI=4.

 GradGradGradGradGradGradGradGradGradGradGradGradGradGradGradGradGradGrad
 Berny optimization.
 Internal  Forces:  Max     0.000271854 RMS     0.000145312
 Search for a local minimum.
 Step number   1 out of a maximum of    2
 All quantities printed in internal units (Hartrees-Bohrs-Radians)
 Second derivative matrix not updated -- analytic derivatives used.
 The second derivative matrix:
                          R1        R2        R3        R4        A1
           R1           0.34437
           R2           0.00103   0.34437
           R3           0.00103   0.00103   0.34437
           R4           0.00103   0.00103   0.00103   0.34437
           A1           0.00185   0.00185  -0.00116  -0.00254   0.01873
           A2           0.00290  -0.00075   0.00322  -0.00537  -0.00835
           A3           0.00566  -0.00454  -0.00503   0.00391  -0.01242
           A4          -0.00075   0.00290   0.00322  -0.00537  -0.00835
           A5          -0.00454   0.00566  -0.00503   0.00391  -0.01242
           A6          -0.00511  -0.00511   0.00477   0.00546   0.02281
           D1          -0.00358  -0.00358  -0.00253   0.00968  -0.01271
           D2           0.00295   0.00295  -0.00758   0.00168   0.00772
           D3          -0.00388   0.00683  -0.00379   0.00084   0.00386
           D4          -0.00683   0.00388   0.00379  -0.00084  -0.00386
                          A2        A3        A4        A5        A6
           A2           0.03527
           A3          -0.02145   0.06890
           A4          -0.00203   0.02369   0.03527
           A5           0.02369  -0.03347  -0.02145   0.06890
           A6          -0.02712  -0.02524  -0.02712  -0.02524   0.08191
           D1          -0.01013   0.01385  -0.01013   0.01385   0.00528
           D2          -0.00885   0.00648  -0.00885   0.00648  -0.00297
           D3          -0.01345  -0.00046   0.00459   0.00694  -0.00149
           D4          -0.00459  -0.00694   0.01345   0.00046   0.00149
                          D1        D2        D3        D4
           D1           0.02798
           D2           0.00139   0.01739
           D3           0.00070   0.00870   0.01766
           D4          -0.00070  -0.00870   0.00897   0.01766
 ITU=  0
     Eigenvalues ---    0.03569   0.04020   0.06105   0.12474   0.12527
     Eigenvalues ---    0.34416   0.34418   0.34442   0.34745
 Angle between quadratic step and forces=   0.00 degrees.
 Linear search not attempted -- first point.
 Iteration  1 RMS(Cart)=  0.00041822 RMS(Int)=  0.00000000
 Iteration  2 RMS(Cart)=  0.00000000 RMS(Int)=  0.00000000
 ClnCor:  largest displacement from symmetrization is 1.35D-12 for atom     4.
 Variable       Old X    -DE/DX   Delta X   Delta X   Delta X     New X
                                 (Linear)    (Quad)   (Total)
    R1        2.06042   0.00027   0.00000   0.00078   0.00078   2.06120
    R2        2.06042   0.00027   0.00000   0.00078   0.00078   2.06120
    R3        2.06042   0.00027   0.00000   0.00078   0.00078   2.06120
    R4        2.06042   0.00027   0.00000   0.00078   0.00078   2.06120
    A1        1.91063   0.00000   0.00000   0.00000   0.00000   1.91063
    A2        1.91063   0.00000   0.00000   0.00000   0.00000   1.91063
    A3        1.91063   0.00000   0.00000   0.00000   0.00000   1.91063
    A4        1.91063   0.00000   0.00000   0.00000   0.00000   1.91063
    A5        1.91063   0.00000   0.00000   0.00000   0.00000   1.91063
    A6        1.91063   0.00000   0.00000   0.00000   0.00000   1.91063
    D1       -2.09440   0.00000   0.00000   0.00000   0.00000  -2.09440
    D2        2.09440   0.00000   0.00000   0.00000   0.00000   2.09440
    D3       -2.09440   0.00000   0.00000   0.00000   0.00000  -2.09440
    D4        2.09440   0.00000   0.00000   0.00000   0.00000   2.09440
         Item               Value     Threshold  Converged?
 Maximum Force            0.000272     0.000450     YES
 RMS     Force            0.000145     0.000300     YES
 Maximum Displacement     0.000782     0.001800     YES
 RMS     Displacement     0.000418     0.001200     YES
 Predicted change in Energy=-4.254063D-07
 Optimization completed.
    -- Stationary point found.
                           ----------------------------
                           !   Optimized Parameters   !
                           ! (Angstroms and Degrees)  !
 --------------------------                            --------------------------
 ! Name  Definition              Value          Derivative Info.                !
 --------------------------------------------------------------------------------
 ! R1    R(1,2)                  1.0903         -DE/DX =    0.0003              !
 ! R2    R(1,3)                  1.0903         -DE/DX =    0.0003              !
 ! R3    R(1,4)                  1.0903         -DE/DX =    0.0003              !
 ! R4    R(1,5)                  1.0903         -DE/DX =    0.0003              !
 ! A1    A(2,1,3)              109.4712         -DE/DX =    0.0                 !
 ! A2    A(2,1,4)              109.4712         -DE/DX =    0.0                 !
 ! A3    A(2,1,5)              109.4712         -DE/DX =    0.0                 !
 ! A4    A(3,1,4)              109.4712         -DE/DX =    0.0                 !
 ! A5    A(3,1,5)              109.4712         -DE/DX =    0.0                 !
 ! A6    A(4,1,5)              109.4712         -DE/DX =    0.0                 !
 ! D1    D(2,1,4,3)           -120.0            -DE/DX =    0.0                 !
 ! D2    D(2,1,5,3)            120.0            -DE/DX =    0.0                 !
 ! D3    D(2,1,5,4)           -120.0            -DE/DX =    0.0                 !
 ! D4    D(3,1,5,4)            120.0            -DE/DX =    0.0                 !
 --------------------------------------------------------------------------------
 GradGradGradGradGradGradGradGradGradGradGradGradGradGradGradGradGradGrad

 1\1\GINC-W8-4\Freq\RM06\6-311G(d,p)\C1H4\JWCHOI\09-Aug-2018\0\\#N Geom
 =AllCheck Guess=TCheck SCRF=Check GenChk RM06/6-311G(d,p) Freq\\Title 
 Card Required\\0,1\C,-0.263671869,0.839843696,0.\H,0.0997582516,-0.188
 131536,-0.0000008941\H,0.0997776591,1.3538241923,0.8902488529\H,0.0997
 76199,1.3538252247,-0.8902488529\H,-1.3539995858,0.839856903,0.0000008
 941\\Version=EM64L-G09RevD.01\State=1-A1\HF=-40.4882274\RMSD=2.955e-10
 \RMSF=1.404e-04\ZeroPoint=0.0443174\Thermal=0.047191\Dipole=0.,0.,0.\D
 ipoleDeriv=-0.0340613,0.,0.,0.,-0.0340613,0.,0.,0.,-0.0340613,0.055665
 4,0.066676,0.,0.066676,-0.1093574,-0.0000002,0.,-0.0000002,0.079238,0.
 0556629,-0.0333393,-0.0577459,-0.0333393,0.0320904,-0.0816627,-0.05774
 59,-0.0816627,-0.0622074,0.055663,-0.0333392,0.0577457,-0.0333392,0.03
 20903,0.0816629,0.0577457,0.0816629,-0.0622074,-0.13293,0.0000026,0.00
 00002,0.0000026,0.079238,0.,0.0000002,0.,0.079238\Polar=13.762438,0.,1
 3.762438,0.,0.,13.762438\PG=TD [O(C1),4C3(H1)]\NImag=0\\0.54230432,0.,
 0.54230432,0.,0.,0.54230432,-0.07398622,0.08709562,0.00000008,0.076325
 63,0.08709562,-0.28954756,-0.00000021,-0.09476500,0.31086866,0.0000000
 8,-0.00000021,-0.04319446,-0.00000008,0.00000023,0.04282243,-0.0739895
 1,-0.04354953,-0.07543072,0.00283556,0.00470607,0.01028663,0.07632921,
 -0.04354953,-0.10478103,-0.10667209,-0.01126206,-0.01168432,-0.0240975
 0,0.04738437,0.10983213,-0.07543072,-0.10667209,-0.22795770,0.00106775
 ,0.00197842,0.00108594,0.08207293,0.11606532,0.24385538,-0.07398926,-0
 .04354944,0.07543042,0.00283554,0.00470608,-0.01028663,0.00283578,0.00
 655569,-0.00921937,0.07632894,-0.04354944,-0.10478127,0.10667230,-0.01
 126202,-0.01168435,0.02409750,0.00655565,0.00747098,-0.01303779,0.0473
 8428,0.10983240,0.07543042,0.10667230,-0.22795770,-0.00106776,-0.00197
 844,0.00108598,0.00921934,0.01303781,-0.01806960,-0.08207260,-0.116065
 55,0.24385538,-0.32033932,0.00000336,0.00000023,-0.00801050,-0.0017427
 7,0.,-0.00801104,0.00087153,0.00150941,-0.00801100,0.00087153,-0.00150
 940,0.34437186,0.00000336,-0.04319446,0.,0.03019346,0.00204756,-0.0000
 0002,-0.01509657,-0.00083777,0.00166614,-0.01509660,-0.00083777,-0.001
 66612,-0.00000365,0.04282243,0.00000023,0.,-0.04319446,0.00000002,0.,-
 0.00179989,-0.02614818,0.00166646,0.00108598,0.02614818,-0.00166647,0.
 00108594,-0.00000025,0.,0.04282243\\0.,0.,0.,-0.00009061,0.00025631,0.
 ,-0.00009062,-0.00012815,-0.00022197,-0.00009062,-0.00012815,0.0002219
 7,0.00027185,0.,0.\\\@


 THE ONLY DIFFERENCE BETWEEN ECCENTRICS AND JOGGERS
 IS THAT JOGGERS WEAR SWEATBANDS WHEN THEY RUN IN THE RAIN.
 Job cpu time:       0 days  0 hours  0 minutes 38.0 seconds.
 File lengths (MBytes):  RWF=      5 Int=      0 D2E=      0 Chk=      2 Scr=      1
 Normal termination of Gaussian 09 at Thu Aug  9 15:50:27 2018.
