 Entering Gaussian System, Link 0=g16
 Initial command:
 /share/apps/g16_avx/g16/l1.exe "/state/partition1/2537/Gau-8405.inp" -scrdir="/state/partition1/2537/"
 Entering Link 1 = /share/apps/g16_avx/g16/l1.exe PID=      8406.
  
 Copyright (c) 1988,1990,1992,1993,1995,1998,2003,2009,2016,
            Gaussian, Inc.  All Rights Reserved.
  
 This is part of the Gaussian(R) 16 program.  It is based on
 the Gaussian(R) 09 system (copyright 2009, Gaussian, Inc.),
 the Gaussian(R) 03 system (copyright 2003, Gaussian, Inc.),
 the Gaussian(R) 98 system (copyright 1998, Gaussian, Inc.),
 the Gaussian(R) 94 system (copyright 1995, Gaussian, Inc.),
 the Gaussian 92(TM) system (copyright 1992, Gaussian, Inc.),
 the Gaussian 90(TM) system (copyright 1990, Gaussian, Inc.),
 the Gaussian 88(TM) system (copyright 1988, Gaussian, Inc.),
 the Gaussian 86(TM) system (copyright 1986, Carnegie Mellon
 University), and the Gaussian 82(TM) system (copyright 1983,
 Carnegie Mellon University). Gaussian is a federally registered
 trademark of Gaussian, Inc.
  
 This software contains proprietary and confidential information,
 including trade secrets, belonging to Gaussian, Inc.
  
 This software is provided under written license and may be
 used, copied, transmitted, or stored only in accord with that
 written license.
  
 The following legend is applicable only to US Government
 contracts under FAR:
  
                    RESTRICTED RIGHTS LEGEND
  
 Use, reproduction and disclosure by the US Government is
 subject to restrictions as set forth in subparagraphs (a)
 and (c) of the Commercial Computer Software - Restricted
 Rights clause in FAR 52.227-19.
  
 Gaussian, Inc.
 340 Quinnipiac St., Bldg. 40, Wallingford CT 06492
  
  
 ---------------------------------------------------------------
 Warning -- This program may not be used in any manner that
 competes with the business of Gaussian, Inc. or will provide
 assistance to any competitor of Gaussian, Inc.  The licensee
 of this program is prohibited from giving any competitor of
 Gaussian, Inc. access to this program.  By using this program,
 the user acknowledges that Gaussian, Inc. is engaged in the
 business of creating and licensing software in the field of
 computational chemistry and represents and warrants to the
 licensee that it is not a competitor of Gaussian, Inc. and that
 it will not use this program in any manner prohibited above.
 ---------------------------------------------------------------
  

 Cite this work as:
 Gaussian 16, Revision A.03,
 M. J. Frisch, G. W. Trucks, H. B. Schlegel, G. E. Scuseria, 
 M. A. Robb, J. R. Cheeseman, G. Scalmani, V. Barone, 
 G. A. Petersson, H. Nakatsuji, X. Li, M. Caricato, A. V. Marenich, 
 J. Bloino, B. G. Janesko, R. Gomperts, B. Mennucci, H. P. Hratchian, 
 J. V. Ortiz, A. F. Izmaylov, J. L. Sonnenberg, D. Williams-Young, 
 F. Ding, F. Lipparini, F. Egidi, J. Goings, B. Peng, A. Petrone, 
 T. Henderson, D. Ranasinghe, V. G. Zakrzewski, J. Gao, N. Rega, 
 G. Zheng, W. Liang, M. Hada, M. Ehara, K. Toyota, R. Fukuda, 
 J. Hasegawa, M. Ishida, T. Nakajima, Y. Honda, O. Kitao, H. Nakai, 
 T. Vreven, K. Throssell, J. A. Montgomery, Jr., J. E. Peralta, 
 F. Ogliaro, M. J. Bearpark, J. J. Heyd, E. N. Brothers, K. N. Kudin, 
 V. N. Staroverov, T. A. Keith, R. Kobayashi, J. Normand, 
 K. Raghavachari, A. P. Rendell, J. C. Burant, S. S. Iyengar, 
 J. Tomasi, M. Cossi, J. M. Millam, M. Klene, C. Adamo, R. Cammi, 
 J. W. Ochterski, R. L. Martin, K. Morokuma, O. Farkas, 
 J. B. Foresman, and D. J. Fox, Gaussian, Inc., Wallingford CT, 2016.
 
 ******************************************
 Gaussian 16:  ES64L-G16RevA.03 25-Dec-2016
                15-Oct-2018 
 ******************************************
 %chk=w2.chk
 %mem=30GB
 %nprocs=16
 Will use up to   16 processors via shared memory.
 ----------------------------------------------------------------------
 #wb97xd/gen pseudo opt=(maxcycle=1024) freq=noraman int=ultrafine 6d g
 09defaults
 ----------------------------------------------------------------------
 1/6=1024,14=-1,18=20,19=15,26=4,38=1,158=3,167=1/1,3;
 2/9=110,12=2,17=6,18=5,40=1/2;
 3/5=7,8=2,11=2,16=1,17=8,25=1,27=10,30=1,71=1,74=-58,75=-5,158=3/1,2,3;
 4/60=-1/1;
 5/5=2,38=5,87=10/2;
 6/7=2,8=2,9=2,10=2,28=1,87=10/1;
 7/87=10/1,2,3,16;
 1/6=1024,14=-1,18=20,19=15,26=4,158=3,167=1/3(2);
 2/9=110/2;
 99//99;
 2/9=110/2;
 3/5=7,6=1,8=2,11=2,16=1,17=8,25=1,27=10,30=1,71=1,74=-58,75=-5,82=7,158=3/1,2,3;
 4/5=5,16=3,60=-1,69=1/1;
 5/5=2,38=5,87=10/2;
 7/87=10/1,2,3,16;
 1/6=1024,14=-1,18=20,19=15,26=4,158=3,167=1/3(-5);
 2/9=110/2;
 6/7=2,8=2,9=2,10=2,19=2,28=1,87=10/1;
 99/9=1/99;
 Using 2006 physical constants.
 -------------------
 Title Card Required
 -------------------
 Symbolic Z-matrix:
 Charge =  2 Multiplicity = 5
 O                    -0.07367  -2.12867  -0.06705 
 O                     0.14036   2.1092   -0.04696 
 O                     2.13121  -0.10344  -0.06813 
 O                    -2.10675   0.10893  -0.04073 
 O                    -0.01405   0.00075  -1.69489 
 H                     0.56184  -2.69196   0.41081 
 H                    -0.15044  -2.53926  -0.9485 
 H                    -0.46528   2.68449   0.45447 
 H                     0.1844    2.5177   -0.93173 
 H                     2.52984  -0.20647  -0.95264 
 H                     2.68097   0.57635   0.36286 
 H                    -2.69011  -0.45178   0.50142 
 H                    -2.53228   0.13522  -0.91783 
 Fe                    0.00413  -0.00947  -0.09215 
 N                     0.01597  -0.04992   2.04724 
 H                    -0.5038   -0.83951   2.45221 
 H                     0.9552   -0.13304   2.45733 
 H                    -0.38663   0.77763   2.50522 
 
 Add virtual bond connecting atoms Fe14       and O4         Dist= 4.00D+00.
 Add virtual bond connecting atoms Fe14       and O1         Dist= 4.01D+00.
 Add virtual bond connecting atoms Fe14       and O2         Dist= 4.01D+00.
 Add virtual bond connecting atoms Fe14       and O3         Dist= 4.02D+00.

 GradGradGradGradGradGradGradGradGradGradGradGradGradGradGradGradGradGrad
 Berny optimization.
 Initialization pass.
                           ----------------------------
                           !    Initial Parameters    !
                           ! (Angstroms and Degrees)  !
 --------------------------                            --------------------------
 ! Name  Definition              Value          Derivative Info.                !
 --------------------------------------------------------------------------------
 ! R1    R(1,6)                  0.9744         estimate D2E/DX2                !
 ! R2    R(1,7)                  0.9754         estimate D2E/DX2                !
 ! R3    R(1,14)                 2.1208         estimate D2E/DX2                !
 ! R4    R(2,8)                  0.9743         estimate D2E/DX2                !
 ! R5    R(2,9)                  0.9755         estimate D2E/DX2                !
 ! R6    R(2,14)                 2.1235         estimate D2E/DX2                !
 ! R7    R(3,10)                 0.9756         estimate D2E/DX2                !
 ! R8    R(3,11)                 0.9747         estimate D2E/DX2                !
 ! R9    R(3,14)                 2.1293         estimate D2E/DX2                !
 ! R10   R(4,12)                 0.974          estimate D2E/DX2                !
 ! R11   R(4,13)                 0.9752         estimate D2E/DX2                !
 ! R12   R(4,14)                 2.1148         estimate D2E/DX2                !
 ! R13   R(5,14)                 1.6029         estimate D2E/DX2                !
 ! R14   R(14,15)                2.1398         estimate D2E/DX2                !
 ! R15   R(15,16)                1.0284         estimate D2E/DX2                !
 ! R16   R(15,17)                1.0282         estimate D2E/DX2                !
 ! R17   R(15,18)                1.0279         estimate D2E/DX2                !
 ! A1    A(6,1,7)              104.5461         estimate D2E/DX2                !
 ! A2    A(6,1,14)             124.0225         estimate D2E/DX2                !
 ! A3    A(7,1,14)             114.3817         estimate D2E/DX2                !
 ! A4    A(8,2,9)              104.3356         estimate D2E/DX2                !
 ! A5    A(8,2,14)             124.0702         estimate D2E/DX2                !
 ! A6    A(9,2,14)             113.6652         estimate D2E/DX2                !
 ! A7    A(10,3,11)            104.1264         estimate D2E/DX2                !
 ! A8    A(10,3,14)            113.7403         estimate D2E/DX2                !
 ! A9    A(11,3,14)            122.5227         estimate D2E/DX2                !
 ! A10   A(12,4,13)            104.7616         estimate D2E/DX2                !
 ! A11   A(12,4,14)            125.3897         estimate D2E/DX2                !
 ! A12   A(13,4,14)            114.5299         estimate D2E/DX2                !
 ! A13   A(1,14,3)              89.565          estimate D2E/DX2                !
 ! A14   A(1,14,4)              91.0911         estimate D2E/DX2                !
 ! A15   A(1,14,5)              91.0192         estimate D2E/DX2                !
 ! A16   A(1,14,15)             88.2511         estimate D2E/DX2                !
 ! A17   A(2,14,3)              88.8372         estimate D2E/DX2                !
 ! A18   A(2,14,4)              90.4389         estimate D2E/DX2                !
 ! A19   A(2,14,5)              90.8965         estimate D2E/DX2                !
 ! A20   A(2,14,15)             89.8412         estimate D2E/DX2                !
 ! A21   A(3,14,5)              91.3114         estimate D2E/DX2                !
 ! A22   A(3,14,15)             88.9891         estimate D2E/DX2                !
 ! A23   A(4,14,5)              90.7242         estimate D2E/DX2                !
 ! A24   A(4,14,15)             88.9843         estimate D2E/DX2                !
 ! A25   A(14,15,16)           113.9178         estimate D2E/DX2                !
 ! A26   A(14,15,17)           113.9129         estimate D2E/DX2                !
 ! A27   A(14,15,18)           115.3444         estimate D2E/DX2                !
 ! A28   A(16,15,17)           104.0367         estimate D2E/DX2                !
 ! A29   A(16,15,18)           104.1648         estimate D2E/DX2                !
 ! A30   A(17,15,18)           104.1904         estimate D2E/DX2                !
 ! A31   L(1,14,2,3,-1)        178.4022         estimate D2E/DX2                !
 ! A32   L(3,14,4,1,-1)        180.6561         estimate D2E/DX2                !
 ! A33   L(5,14,15,1,-1)       179.2703         estimate D2E/DX2                !
 ! A34   L(1,14,2,3,-2)        181.8798         estimate D2E/DX2                !
 ! A35   L(3,14,4,1,-2)        177.9522         estimate D2E/DX2                !
 ! A36   L(5,14,15,1,-2)       180.3058         estimate D2E/DX2                !
 ! D1    D(6,1,14,3)            35.0723         estimate D2E/DX2                !
 ! D2    D(6,1,14,4)          -142.8799         estimate D2E/DX2                !
 ! D3    D(6,1,14,5)           126.3762         estimate D2E/DX2                !
 ! D4    D(6,1,14,15)          -53.9295         estimate D2E/DX2                !
 ! D5    D(7,1,14,3)           -94.6207         estimate D2E/DX2                !
 ! D6    D(7,1,14,4)            87.427          estimate D2E/DX2                !
 ! D7    D(7,1,14,5)            -3.3168         estimate D2E/DX2                !
 ! D8    D(7,1,14,15)          176.3774         estimate D2E/DX2                !
 ! D9    D(8,2,14,3)          -141.9999         estimate D2E/DX2                !
 ! D10   D(8,2,14,4)            35.9752         estimate D2E/DX2                !
 ! D11   D(8,2,14,5)           126.7064         estimate D2E/DX2                !
 ! D12   D(8,2,14,15)          -53.0078         estimate D2E/DX2                !
 ! D13   D(9,2,14,3)            89.4841         estimate D2E/DX2                !
 ! D14   D(9,2,14,4)           -92.5407         estimate D2E/DX2                !
 ! D15   D(9,2,14,5)            -1.8095         estimate D2E/DX2                !
 ! D16   D(9,2,14,15)          178.4762         estimate D2E/DX2                !
 ! D17   D(10,3,14,1)           85.1905         estimate D2E/DX2                !
 ! D18   D(10,3,14,2)          -96.6894         estimate D2E/DX2                !
 ! D19   D(10,3,14,5)           -5.8191         estimate D2E/DX2                !
 ! D20   D(10,3,14,15)         173.4489         estimate D2E/DX2                !
 ! D21   D(11,3,14,1)         -148.1795         estimate D2E/DX2                !
 ! D22   D(11,3,14,2)           29.9406         estimate D2E/DX2                !
 ! D23   D(11,3,14,5)          120.8109         estimate D2E/DX2                !
 ! D24   D(11,3,14,15)         -59.9211         estimate D2E/DX2                !
 ! D25   D(12,4,14,1)           41.0325         estimate D2E/DX2                !
 ! D26   D(12,4,14,2)         -137.0321         estimate D2E/DX2                !
 ! D27   D(12,4,14,5)          132.0658         estimate D2E/DX2                !
 ! D28   D(12,4,14,15)         -47.1987         estimate D2E/DX2                !
 ! D29   D(13,4,14,1)          -90.8608         estimate D2E/DX2                !
 ! D30   D(13,4,14,2)           91.0746         estimate D2E/DX2                !
 ! D31   D(13,4,14,5)            0.1725         estimate D2E/DX2                !
 ! D32   D(13,4,14,15)        -179.092          estimate D2E/DX2                !
 ! D33   D(1,14,15,16)         -31.6221         estimate D2E/DX2                !
 ! D34   D(1,14,15,17)          87.5148         estimate D2E/DX2                !
 ! D35   D(1,14,15,18)        -152.0382         estimate D2E/DX2                !
 ! D36   D(2,14,15,16)         149.9425         estimate D2E/DX2                !
 ! D37   D(2,14,15,17)         -90.9206         estimate D2E/DX2                !
 ! D38   D(2,14,15,18)          29.5263         estimate D2E/DX2                !
 ! D39   D(3,14,15,16)        -121.2177         estimate D2E/DX2                !
 ! D40   D(3,14,15,17)          -2.0808         estimate D2E/DX2                !
 ! D41   D(3,14,15,18)         118.3661         estimate D2E/DX2                !
 ! D42   D(4,14,15,16)          59.5007         estimate D2E/DX2                !
 ! D43   D(4,14,15,17)         178.6376         estimate D2E/DX2                !
 ! D44   D(4,14,15,18)         -60.9154         estimate D2E/DX2                !
 --------------------------------------------------------------------------------
 Trust Radius=3.00D-01 FncErr=1.00D-07 GrdErr=1.00D-06 EigMax=2.50D+02 EigMin=1.00D-04
 Number of steps in this run=    108 maximum allowed number of steps=    108.
 GradGradGradGradGradGradGradGradGradGradGradGradGradGradGradGradGradGrad

                          Input orientation:                          
 ---------------------------------------------------------------------
 Center     Atomic      Atomic             Coordinates (Angstroms)
 Number     Number       Type             X           Y           Z
 ---------------------------------------------------------------------
      1          8           0       -0.073670   -2.128671   -0.067051
      2          8           0        0.140357    2.109198   -0.046960
      3          8           0        2.131210   -0.103444   -0.068131
      4          8           0       -2.106746    0.108930   -0.040729
      5          8           0       -0.014047    0.000750   -1.694885
      6          1           0        0.561843   -2.691960    0.410808
      7          1           0       -0.150440   -2.539256   -0.948503
      8          1           0       -0.465283    2.684490    0.454474
      9          1           0        0.184402    2.517698   -0.931730
     10          1           0        2.529840   -0.206470   -0.952643
     11          1           0        2.680971    0.576348    0.362859
     12          1           0       -2.690106   -0.451779    0.501421
     13          1           0       -2.532280    0.135215   -0.917834
     14         26           0        0.004125   -0.009468   -0.092150
     15          7           0        0.015971   -0.049919    2.047238
     16          1           0       -0.503796   -0.839512    2.452209
     17          1           0        0.955202   -0.133039    2.457334
     18          1           0       -0.386633    0.777629    2.505220
 ---------------------------------------------------------------------
                    Distance matrix (angstroms):
                    1          2          3          4          5
     1  O    0.000000
     2  O    4.243318   0.000000
     3  O    2.993834   2.976530   0.000000
     4  O    3.023400   3.008419   4.243362   0.000000
     5  O    2.681013   2.680494   2.694311   2.669705   0.000000
     6  H    0.974433   4.841314   3.064753   3.894899   3.466451
     7  H    0.975413   4.743993   3.451690   3.415271   2.650909
     8  H    4.857146   0.974267   3.845448   3.094048   3.467826
     9  H    4.733182   0.975515   3.377314   3.441715   2.637577
    10  H    3.355204   3.448508   0.975644   4.735926   2.658049
    11  H    3.884585   2.995380   0.974734   4.827380   3.439294
    12  H    3.159251   3.856274   4.867321   0.973976   3.491394
    13  H    3.448735   3.434824   4.746271   0.975235   2.638823
    14  Fe   2.120779   2.123522   2.129295   2.114814   1.602871
    15  N    2.966389   3.010469   2.991970   2.981739   3.742586
    16  H    2.862448   3.918631   3.719834   3.111869   4.259611
    17  H    3.378409   3.458770   2.786009   3.959090   4.265943
    18  H    3.893726   2.926503   3.706475   3.144488   4.287568
                    6          7          8          9         10
     6  H    0.000000
     7  H    1.542204   0.000000
     8  H    5.473857   5.418025   0.000000
     9  H    5.393089   5.068055   1.539958   0.000000
    10  H    3.451039   3.553281   4.394131   3.594803   0.000000
    11  H    3.895490   4.409484   3.788347   3.417259   1.538243
    12  H    3.949911   3.593013   3.845546   4.374301   5.424234
    13  H    4.396795   3.581466   3.557318   3.613417   5.073758
    14  Fe   2.785638   2.675268   2.788647   2.669075   2.675536
    15  N    3.155354   3.898584   3.200859   3.936404   3.917056
    16  H    2.955413   3.818224   4.051052   4.816173   4.603988
    17  H    3.300163   4.314169   3.737338   4.371075   3.756703
    18  H    4.162237   4.794342   2.801404   3.894425   4.629372
                   11         12         13         14         15
    11  H    0.000000
    12  H    5.470348   0.000000
    13  H    5.386349   1.543942   0.000000
    14  Fe   2.777718   2.794073   2.671336   0.000000
    15  N    3.214276   3.142275   3.914015   2.139803   0.000000
    16  H    4.063592   2.955649   4.052410   2.724100   1.028405
    17  H    2.805055   4.149152   4.860684   2.723910   1.028223
    18  H    3.747055   3.291298   4.090696   2.741996   1.027946
                   16         17         18
    16  H    0.000000
    17  H    1.621051   0.000000
    18  H    1.622246   1.622384   0.000000
 Stoichiometry    FeH11NO5(2+,5)
 Framework group  C1[X(FeH11NO5)]
 Deg. of freedom    48
 Full point group                 C1      NOp   1
 Largest Abelian subgroup         C1      NOp   1
 Largest concise Abelian subgroup C1      NOp   1
                         Standard orientation:                         
 ---------------------------------------------------------------------
 Center     Atomic      Atomic             Coordinates (Angstroms)
 Number     Number       Type             X           Y           Z
 ---------------------------------------------------------------------
      1          8           0       -1.969077   -0.779397   -0.134202
      2          8           0        1.991425    0.739988   -0.026319
      3          8           0        0.774149   -1.976064   -0.058441
      4          8           0       -0.746186    1.985402   -0.097136
      5          8           0        0.042367    0.016199   -1.718169
      6          1           0       -2.238957   -1.585073    0.342842
      7          1           0       -2.353556   -0.881632   -1.024795
      8          1           0        2.259982    1.530186    0.476336
      9          1           0        2.404730    0.858714   -0.901941
     10          1           0        0.863180   -2.388581   -0.938091
     11          1           0        1.607238   -2.200617    0.395040
     12          1           0       -1.508216    2.295806    0.424007
     13          1           0       -0.872406    2.378909   -0.980484
     14         26           0        0.000478    0.006872   -0.115873
     15          7           0       -0.084968   -0.005079    2.022190
     16          1           0       -1.027123    0.153572    2.402705
     17          1           0        0.208653   -0.894656    2.446079
     18          1           0        0.497401    0.701227    2.489791
 ---------------------------------------------------------------------
 Rotational constants (GHZ):           1.6765642           1.6761353           1.4571320
 General basis read from cards:  (6D, 7F)
 ======================================================================================================
                                       Pseudopotential Parameters
 ======================================================================================================
  Center     Atomic      Valence      Angular      Power
  Number     Number     Electrons     Momentum     of R      Exponent        Coefficient   SO-Coeffient
 ======================================================================================================
    1          8
                                   No pseudopotential on this center.
    2          8
                                   No pseudopotential on this center.
    3          8
                                   No pseudopotential on this center.
    4          8
                                   No pseudopotential on this center.
    5          8
                                   No pseudopotential on this center.
    6          1
                                   No pseudopotential on this center.
    7          1
                                   No pseudopotential on this center.
    8          1
                                   No pseudopotential on this center.
    9          1
                                   No pseudopotential on this center.
   10          1
                                   No pseudopotential on this center.
   11          1
                                   No pseudopotential on this center.
   12          1
                                   No pseudopotential on this center.
   13          1
                                   No pseudopotential on this center.
   14         26           16
                                      D and up 
                                                     1      392.6149787      -10.00000000    0.00000000
                                                     2       71.1756979      -63.26675180    0.00000000
                                                     2       17.7320281      -10.96133380    0.00000000
                                      S - D
                                                     0      126.0571895        3.00000000    0.00000000
                                                     1      138.1264251       18.17291370    0.00000000
                                                     2       54.2098858      339.12311640    0.00000000
                                                     2        9.2837966      317.10680120    0.00000000
                                                     2        8.6289082     -207.34216490    0.00000000
                                      P - D
                                                     0       83.1759490        5.00000000    0.00000000
                                                     1      106.0559938        5.95359300    0.00000000
                                                     2       42.8284937      294.26655270    0.00000000
                                                     2        8.7701805      154.42446350    0.00000000
                                                     2        8.0397818      -95.31642490    0.00000000
   15          7
                                   No pseudopotential on this center.
   16          1
                                   No pseudopotential on this center.
   17          1
                                   No pseudopotential on this center.
   18          1
                                   No pseudopotential on this center.
 ======================================================================================================
 There are   169 symmetry adapted cartesian basis functions of A   symmetry.
 There are   169 symmetry adapted basis functions of A   symmetry.
   169 basis functions,   297 primitive gaussians,   169 cartesian basis functions
    38 alpha electrons       34 beta electrons
       nuclear repulsion energy       509.9321560286 Hartrees.
 NAtoms=   18 NActive=   18 NUniq=   18 SFac= 1.00D+00 NAtFMM=   60 NAOKFM=F Big=F
 Integral buffers will be    131072 words long.
 Raffenetti 2 integral format.
 Two-electron integral symmetry is turned on.
 Nuclear repulsion after empirical dispersion term =      509.9218867214 Hartrees.
 One-electron integrals computed using PRISM.
   1 Symmetry operations used in ECPInt.
 ECPInt:  NShTT=    2145 NPrTT=    9747 LenC2=    2120 LenP2D=    7204.
 LDataN:  DoStor=T MaxTD1= 4 Len=   56
 NBasis=   169 RedAO= T EigKep=  5.37D-03  NBF=   169
 NBsUse=   169 1.00D-06 EigRej= -1.00D+00 NBFU=   169
 ExpMin= 2.20D-02 ExpMax= 5.48D+03 ExpMxC= 8.25D+02 IAcc=3 IRadAn=         5 AccDes= 0.00D+00
 Harris functional with IExCor= 4639 and IRadAn=      -1 diagonalized for initial guess.
 HarFok:  IExCor= 4639 AccDes= 0.00D+00 IRadAn=        -1 IDoV= 1 UseB2=F ITyADJ=14
 ICtDFT=  3500011 ScaDFX=  1.000000  1.000000  1.000000  1.000000
 FoFCou: FMM=F IPFlag=           0 FMFlag=      100000 FMFlg1=           0
         NFxFlg=           0 DoJE=T BraDBF=F KetDBF=T FulRan=T
         wScrn=  0.000000 ICntrl=       500 IOpCl=  0 I1Cent=   200000004 NGrid=           0
         NMat0=    1 NMatS0=      1 NMatT0=    0 NMatD0=    1 NMtDS0=    0 NMtDT0=    0
 Petite list used in FoFCou.
 Initial guess <Sx>= 0.0000 <Sy>= 0.0000 <Sz>= 2.0000 <S**2>= 6.0000 S= 2.0000
 Requested convergence on RMS density matrix=1.00D-08 within 128 cycles.
 Requested convergence on MAX density matrix=1.00D-06.
 Requested convergence on             energy=1.00D-06.
 No special actions if energy rises.
 EnCoef did    21 forward-backward iterations
 EnCoef did   100 forward-backward iterations
 Restarting incremental Fock formation.
 SCF Done:  E(UwB97XD) =  -560.230851377     A.U. after   31 cycles
            NFock= 31  Conv=0.23D-08     -V/T= 2.1147
 <Sx>= 0.0000 <Sy>= 0.0000 <Sz>= 2.0000 <S**2>= 6.0675 S= 2.0135
 <L.S>=  0.00000000000    
 Annihilation of the first spin contaminant:
 S**2 before annihilation     6.0675,   after     6.0006

 **********************************************************************

            Population analysis using the SCF density.

 **********************************************************************

 Orbital symmetries:
 Alpha Orbitals:
       Occupied  (A) (A) (A) (A) (A) (A) (A) (A) (A) (A) (A) (A)
                 (A) (A) (A) (A) (A) (A) (A) (A) (A) (A) (A) (A)
                 (A) (A) (A) (A) (A) (A) (A) (A) (A) (A) (A) (A)
                 (A) (A)
       Virtual   (A) (A) (A) (A) (A) (A) (A) (A) (A) (A) (A) (A)
                 (A) (A) (A) (A) (A) (A) (A) (A) (A) (A) (A) (A)
                 (A) (A) (A) (A) (A) (A) (A) (A) (A) (A) (A) (A)
                 (A) (A) (A) (A) (A) (A) (A) (A) (A) (A) (A) (A)
                 (A) (A) (A) (A) (A) (A) (A) (A) (A) (A) (A) (A)
                 (A) (A) (A) (A) (A) (A) (A) (A) (A) (A) (A) (A)
                 (A) (A) (A) (A) (A) (A) (A) (A) (A) (A) (A) (A)
                 (A) (A) (A) (A) (A) (A) (A) (A) (A) (A) (A) (A)
                 (A) (A) (A) (A) (A) (A) (A) (A) (A) (A) (A) (A)
                 (A) (A) (A) (A) (A) (A) (A) (A) (A) (A) (A) (A)
                 (A) (A) (A) (A) (A) (A) (A) (A) (A) (A) (A)
 Beta  Orbitals:
       Occupied  (A) (A) (A) (A) (A) (A) (A) (A) (A) (A) (A) (A)
                 (A) (A) (A) (A) (A) (A) (A) (A) (A) (A) (A) (A)
                 (A) (A) (A) (A) (A) (A) (A) (A) (A) (A)
       Virtual   (A) (A) (A) (A) (A) (A) (A) (A) (A) (A) (A) (A)
                 (A) (A) (A) (A) (A) (A) (A) (A) (A) (A) (A) (A)
                 (A) (A) (A) (A) (A) (A) (A) (A) (A) (A) (A) (A)
                 (A) (A) (A) (A) (A) (A) (A) (A) (A) (A) (A) (A)
                 (A) (A) (A) (A) (A) (A) (A) (A) (A) (A) (A) (A)
                 (A) (A) (A) (A) (A) (A) (A) (A) (A) (A) (A) (A)
                 (A) (A) (A) (A) (A) (A) (A) (A) (A) (A) (A) (A)
                 (A) (A) (A) (A) (A) (A) (A) (A) (A) (A) (A) (A)
                 (A) (A) (A) (A) (A) (A) (A) (A) (A) (A) (A) (A)
                 (A) (A) (A) (A) (A) (A) (A) (A) (A) (A) (A) (A)
                 (A) (A) (A) (A) (A) (A) (A) (A) (A) (A) (A) (A)
                 (A) (A) (A)
 The electronic state is 5-A.
 Alpha  occ. eigenvalues --  -19.67818 -19.65634 -19.65593 -19.65570 -19.65517
 Alpha  occ. eigenvalues --  -14.81948  -4.16584  -2.94695  -2.94692  -2.92109
 Alpha  occ. eigenvalues --   -1.48495  -1.47970  -1.47964  -1.47773  -1.40944
 Alpha  occ. eigenvalues --   -1.32516  -0.98532  -0.98514  -0.97980  -0.97705
 Alpha  occ. eigenvalues --   -0.94607  -0.92276  -0.92095  -0.92078  -0.90186
 Alpha  occ. eigenvalues --   -0.90162  -0.89817  -0.88586  -0.87491  -0.87471
 Alpha  occ. eigenvalues --   -0.80962  -0.77918  -0.77909  -0.77155  -0.76096
 Alpha  occ. eigenvalues --   -0.75120  -0.75101  -0.74887
 Alpha virt. eigenvalues --   -0.41536  -0.22756  -0.20390  -0.20376  -0.18511
 Alpha virt. eigenvalues --   -0.13448  -0.09611  -0.09334  -0.09054  -0.07587
 Alpha virt. eigenvalues --   -0.06970  -0.06584  -0.04690  -0.04438  -0.03106
 Alpha virt. eigenvalues --   -0.00860   0.01677   0.01718   0.02192   0.15972
 Alpha virt. eigenvalues --    0.23887   0.24794   0.24918   0.45599   0.53402
 Alpha virt. eigenvalues --    0.54670   0.55175   0.55403   0.56997   0.58591
 Alpha virt. eigenvalues --    0.58845   0.62237   0.62711   0.63680   0.64387
 Alpha virt. eigenvalues --    0.65387   0.66544   0.67598   0.68664   0.69267
 Alpha virt. eigenvalues --    0.69535   0.72869   0.73720   0.79059   0.81301
 Alpha virt. eigenvalues --    0.81856   0.82464   0.83371   0.88227   0.88401
 Alpha virt. eigenvalues --    0.90180   0.90571   0.90661   0.98762   1.03734
 Alpha virt. eigenvalues --    1.08150   1.09292   1.09794   1.11373   1.18760
 Alpha virt. eigenvalues --    1.19010   1.24247   1.26453   1.29826   1.30996
 Alpha virt. eigenvalues --    1.31050   1.32458   1.32496   1.41864   1.42487
 Alpha virt. eigenvalues --    1.48887   1.48943   1.52511   1.55409   1.59690
 Alpha virt. eigenvalues --    1.70612   1.70693   1.83243   1.85050   1.92371
 Alpha virt. eigenvalues --    1.94461   1.94486   1.95221   1.99438   1.99776
 Alpha virt. eigenvalues --    1.99930   2.03708   2.04694   2.05010   2.09489
 Alpha virt. eigenvalues --    2.10226   2.12287   2.16635   2.19567   2.19650
 Alpha virt. eigenvalues --    2.20385   2.23781   2.35900   2.36612   2.38498
 Alpha virt. eigenvalues --    2.38540   2.39828   2.40846   2.40930   2.45635
 Alpha virt. eigenvalues --    2.59671   2.64656   2.65138   2.75537   2.75718
 Alpha virt. eigenvalues --    2.75829   2.75871   2.84772   2.94721   3.03694
 Alpha virt. eigenvalues --    3.07586   3.07623   3.10025   3.18367   3.19412
 Alpha virt. eigenvalues --    3.26914   3.29391   3.29496   3.30870   3.67047
 Alpha virt. eigenvalues --    3.76988   3.78705   3.79501   3.81564   4.05314
 Alpha virt. eigenvalues --   28.70724
  Beta  occ. eigenvalues --  -19.66023 -19.65473 -19.65435 -19.65414 -19.65365
  Beta  occ. eigenvalues --  -14.81970  -3.99051  -2.77870  -2.73728  -2.73728
  Beta  occ. eigenvalues --   -1.48132  -1.47632  -1.47629  -1.47423  -1.35285
  Beta  occ. eigenvalues --   -1.32502  -0.97909  -0.97869  -0.97576  -0.97503
  Beta  occ. eigenvalues --   -0.91236  -0.91193  -0.91022  -0.88063  -0.86912
  Beta  occ. eigenvalues --   -0.86871  -0.84447  -0.79310  -0.78494  -0.78472
  Beta  occ. eigenvalues --   -0.76947  -0.76227  -0.74424  -0.74418
  Beta virt. eigenvalues --   -0.39821  -0.39432  -0.39424  -0.36333  -0.33659
  Beta virt. eigenvalues --   -0.22428  -0.20171  -0.20157  -0.18452  -0.13193
  Beta virt. eigenvalues --   -0.09273  -0.09013  -0.08902  -0.07487  -0.06860
  Beta virt. eigenvalues --   -0.06420  -0.04575  -0.04320  -0.03085  -0.00727
  Beta virt. eigenvalues --    0.02380   0.02418   0.03358   0.16557   0.27096
  Beta virt. eigenvalues --    0.27188   0.27762   0.46703   0.53676   0.55362
  Beta virt. eigenvalues --    0.55522   0.55952   0.57568   0.59217   0.59501
  Beta virt. eigenvalues --    0.62600   0.62891   0.63869   0.64691   0.65624
  Beta virt. eigenvalues --    0.67976   0.68044   0.70051   0.70592   0.71163
  Beta virt. eigenvalues --    0.73022   0.74087   0.79476   0.82424   0.82907
  Beta virt. eigenvalues --    0.83562   0.84405   0.88767   0.88936   0.90573
  Beta virt. eigenvalues --    0.91267   0.91361   0.98945   1.04038   1.08621
  Beta virt. eigenvalues --    1.09517   1.10018   1.12275   1.18880   1.19145
  Beta virt. eigenvalues --    1.24380   1.26657   1.30015   1.31244   1.31300
  Beta virt. eigenvalues --    1.32887   1.32933   1.42439   1.44498   1.49223
  Beta virt. eigenvalues --    1.49497   1.56798   1.57156   1.63181   1.72048
  Beta virt. eigenvalues --    1.72128   1.83269   1.85666   1.92545   1.94620
  Beta virt. eigenvalues --    1.94651   1.95459   1.99459   1.99824   1.99967
  Beta virt. eigenvalues --    2.03867   2.04738   2.05057   2.09663   2.10402
  Beta virt. eigenvalues --    2.12807   2.17091   2.19748   2.19815   2.21227
  Beta virt. eigenvalues --    2.24038   2.36027   2.36693   2.38603   2.38647
  Beta virt. eigenvalues --    2.39892   2.40974   2.41053   2.46183   2.59885
  Beta virt. eigenvalues --    2.64652   2.65169   2.75621   2.75836   2.75913
  Beta virt. eigenvalues --    2.75987   2.86693   2.94789   3.03767   3.07650
  Beta virt. eigenvalues --    3.07688   3.10399   3.18363   3.19417   3.26982
  Beta virt. eigenvalues --    3.29453   3.29563   3.30973   3.69621   3.77195
  Beta virt. eigenvalues --    3.79057   3.79765   3.82004   4.05981  28.94735
          Condensed to atoms (all electrons):
               1          2          3          4          5          6
     1  O    7.915337  -0.000173  -0.005036  -0.004723  -0.002106   0.301391
     2  O   -0.000173   7.913666  -0.005421  -0.005054  -0.002168   0.000005
     3  O   -0.005036  -0.005421   7.914286  -0.000174  -0.002022  -0.000163
     4  O   -0.004723  -0.005054  -0.000174   7.914797  -0.002222   0.000065
     5  O   -0.002106  -0.002168  -0.002022  -0.002222   8.203546   0.000020
     6  H    0.301391   0.000005  -0.000163   0.000065   0.000020   0.305202
     7  H    0.299049   0.000009  -0.000072  -0.000339   0.000323  -0.011285
     8  H    0.000005   0.301550   0.000097  -0.000195   0.000042  -0.000000
     9  H    0.000010   0.298613  -0.000338  -0.000140   0.000339  -0.000000
    10  H   -0.000371  -0.000103   0.298453   0.000010   0.000273   0.000030
    11  H    0.000086  -0.000071   0.300338   0.000006  -0.000009  -0.000017
    12  H   -0.000243   0.000075   0.000005   0.302551   0.000060  -0.000016
    13  H   -0.000104  -0.000307   0.000009   0.299384   0.000360  -0.000001
    14  Fe   0.109947   0.110394   0.111194   0.109167   0.141490  -0.010893
    15  N   -0.004302  -0.003287  -0.004343  -0.003432  -0.005552  -0.000391
    16  H   -0.000163   0.000096  -0.000028  -0.000373   0.000072   0.000189
    17  H   -0.000205  -0.000290   0.000070   0.000129   0.000070   0.000080
    18  H    0.000107  -0.000312   0.000017  -0.000458   0.000067  -0.000005
               7          8          9         10         11         12
     1  O    0.299049   0.000005   0.000010  -0.000371   0.000086  -0.000243
     2  O    0.000009   0.301550   0.298613  -0.000103  -0.000071   0.000075
     3  O   -0.000072   0.000097  -0.000338   0.298453   0.300338   0.000005
     4  O   -0.000339  -0.000195  -0.000140   0.000010   0.000006   0.302551
     5  O    0.000323   0.000042   0.000339   0.000273  -0.000009   0.000060
     6  H   -0.011285  -0.000000  -0.000000   0.000030  -0.000017  -0.000016
     7  H    0.306065  -0.000000  -0.000003  -0.000008  -0.000001   0.000015
     8  H   -0.000000   0.306232  -0.011373   0.000000  -0.000018  -0.000017
     9  H   -0.000003  -0.011373   0.306779  -0.000012   0.000021  -0.000000
    10  H   -0.000008   0.000000  -0.000012   0.307378  -0.011217  -0.000000
    11  H   -0.000001  -0.000018   0.000021  -0.011217   0.306612  -0.000000
    12  H    0.000015  -0.000017  -0.000000  -0.000000  -0.000000   0.304753
    13  H   -0.000012   0.000009  -0.000015  -0.000003  -0.000000  -0.011450
    14  Fe  -0.013086  -0.010514  -0.013140  -0.013131  -0.010794  -0.010654
    15  N    0.000187  -0.000324   0.000169   0.000205  -0.000279  -0.000424
    16  H    0.000013  -0.000017  -0.000003  -0.000001   0.000006   0.000318
    17  H   -0.000000   0.000026   0.000005   0.000007   0.000359  -0.000013
    18  H   -0.000003   0.000508  -0.000002  -0.000002  -0.000010   0.000081
              13         14         15         16         17         18
     1  O   -0.000104   0.109947  -0.004302  -0.000163  -0.000205   0.000107
     2  O   -0.000307   0.110394  -0.003287   0.000096  -0.000290  -0.000312
     3  O    0.000009   0.111194  -0.004343  -0.000028   0.000070   0.000017
     4  O    0.299384   0.109167  -0.003432  -0.000373   0.000129  -0.000458
     5  O    0.000360   0.141490  -0.005552   0.000072   0.000070   0.000067
     6  H   -0.000001  -0.010893  -0.000391   0.000189   0.000080  -0.000005
     7  H   -0.000012  -0.013086   0.000187   0.000013  -0.000000  -0.000003
     8  H    0.000009  -0.010514  -0.000324  -0.000017   0.000026   0.000508
     9  H   -0.000015  -0.013140   0.000169  -0.000003   0.000005  -0.000002
    10  H   -0.000003  -0.013131   0.000205  -0.000001   0.000007  -0.000002
    11  H   -0.000000  -0.010794  -0.000279   0.000006   0.000359  -0.000010
    12  H   -0.011450  -0.010654  -0.000424   0.000318  -0.000013   0.000081
    13  H    0.305273  -0.013031   0.000153  -0.000001  -0.000003   0.000009
    14  Fe  -0.013031  14.270262   0.164818  -0.012503  -0.012939  -0.012023
    15  N    0.000153   0.164818   6.650326   0.331221   0.331294   0.332290
    16  H   -0.000001  -0.012503   0.331221   0.342993  -0.014127  -0.014244
    17  H   -0.000003  -0.012939   0.331294  -0.014127   0.341256  -0.013825
    18  H    0.000009  -0.012023   0.332290  -0.014244  -0.013825   0.341568
          Atomic-Atomic Spin Densities.
               1          2          3          4          5          6
     1  O    0.089756   0.000046  -0.001380  -0.001310  -0.001322  -0.001582
     2  O    0.000046   0.089037  -0.001393  -0.001331  -0.001285  -0.000002
     3  O   -0.001380  -0.001393   0.087051   0.000046  -0.001193   0.000241
     4  O   -0.001310  -0.001331   0.000046   0.091764  -0.001398   0.000031
     5  O   -0.001322  -0.001285  -0.001193  -0.001398   0.910003  -0.000086
     6  H   -0.001582  -0.000002   0.000241   0.000031  -0.000086   0.001593
     7  H   -0.002917  -0.000001   0.000051   0.000088   0.001368   0.000528
     8  H   -0.000002  -0.001614   0.000035   0.000239  -0.000089   0.000000
     9  H   -0.000001  -0.002919   0.000093   0.000052   0.001411   0.000000
    10  H    0.000100   0.000046  -0.002792  -0.000001   0.001310  -0.000021
    11  H    0.000028   0.000280  -0.001467  -0.000002  -0.000096  -0.000009
    12  H    0.000204   0.000037  -0.000002  -0.001720  -0.000080  -0.000008
    13  H    0.000056   0.000084  -0.000001  -0.003034   0.001433  -0.000001
    14  Fe  -0.036465  -0.036253  -0.035560  -0.037206  -0.155908   0.000513
    15  N    0.000073  -0.000018  -0.000032   0.000082  -0.000218  -0.000017
    16  H    0.000137  -0.000014  -0.000014   0.000048  -0.000001   0.000003
    17  H   -0.000017  -0.000017   0.000221  -0.000008  -0.000001   0.000022
    18  H   -0.000008   0.000149  -0.000023   0.000019  -0.000000  -0.000001
               7          8          9         10         11         12
     1  O   -0.002917  -0.000002  -0.000001   0.000100   0.000028   0.000204
     2  O   -0.000001  -0.001614  -0.002919   0.000046   0.000280   0.000037
     3  O    0.000051   0.000035   0.000093  -0.002792  -0.001467  -0.000002
     4  O    0.000088   0.000239   0.000052  -0.000001  -0.000002  -0.001720
     5  O    0.001368  -0.000089   0.001411   0.001310  -0.000096  -0.000080
     6  H    0.000528   0.000000   0.000000  -0.000021  -0.000009  -0.000008
     7  H    0.001044   0.000000  -0.000000  -0.000006  -0.000001  -0.000016
     8  H    0.000000   0.001587   0.000529  -0.000001  -0.000011  -0.000010
     9  H   -0.000000   0.000529   0.001030  -0.000006  -0.000023  -0.000001
    10  H   -0.000006  -0.000001  -0.000006   0.000965   0.000473   0.000000
    11  H   -0.000001  -0.000011  -0.000023   0.000473   0.001607   0.000000
    12  H   -0.000016  -0.000010  -0.000001   0.000000   0.000000   0.001549
    13  H   -0.000006  -0.000018  -0.000006  -0.000000   0.000000   0.000581
    14  Fe   0.001606   0.000588   0.001603   0.001596   0.000468   0.000629
    15  N   -0.000003  -0.000005  -0.000001  -0.000001  -0.000004  -0.000017
    16  H   -0.000006   0.000001   0.000001   0.000001   0.000000   0.000031
    17  H    0.000000   0.000002   0.000000  -0.000009   0.000003  -0.000000
    18  H    0.000000   0.000016  -0.000006   0.000001   0.000006   0.000006
              13         14         15         16         17         18
     1  O    0.000056  -0.036465   0.000073   0.000137  -0.000017  -0.000008
     2  O    0.000084  -0.036253  -0.000018  -0.000014  -0.000017   0.000149
     3  O   -0.000001  -0.035560  -0.000032  -0.000014   0.000221  -0.000023
     4  O   -0.003034  -0.037206   0.000082   0.000048  -0.000008   0.000019
     5  O    0.001433  -0.155908  -0.000218  -0.000001  -0.000001  -0.000000
     6  H   -0.000001   0.000513  -0.000017   0.000003   0.000022  -0.000001
     7  H   -0.000006   0.001606  -0.000003  -0.000006   0.000000   0.000000
     8  H   -0.000018   0.000588  -0.000005   0.000001   0.000002   0.000016
     9  H   -0.000006   0.001603  -0.000001   0.000001   0.000000  -0.000006
    10  H   -0.000000   0.001596  -0.000001   0.000001  -0.000009   0.000001
    11  H    0.000000   0.000468  -0.000004   0.000000   0.000003   0.000006
    12  H    0.000581   0.000629  -0.000017   0.000031  -0.000000   0.000006
    13  H    0.001117   0.001624  -0.000003  -0.000002   0.000001  -0.000001
    14  Fe   0.001624   3.364014  -0.004312  -0.001390  -0.001366  -0.001254
    15  N   -0.000003  -0.004312  -0.009926   0.000560   0.000569   0.000528
    16  H   -0.000002  -0.001390   0.000560   0.002101  -0.000134  -0.000125
    17  H    0.000001  -0.001366   0.000569  -0.000134   0.002120  -0.000143
    18  H   -0.000001  -0.001254   0.000528  -0.000125  -0.000143   0.002045
 Mulliken charges and spin densities:
               1          2
     1  O   -0.608505   0.045396
     2  O   -0.607222   0.044832
     3  O   -0.606871   0.043881
     4  O   -0.609000   0.046358
     5  O   -0.332583   0.753849
     6  H    0.415789   0.001204
     7  H    0.419147   0.001729
     8  H    0.413987   0.001249
     9  H    0.419092   0.001755
    10  H    0.418492   0.001654
    11  H    0.414986   0.001252
    12  H    0.414958   0.001184
    13  H    0.419730   0.001824
    14  Fe   1.115434   3.062928
    15  N   -0.788328  -0.012746
    16  H    0.366552   0.001196
    17  H    0.368106   0.001244
    18  H    0.366235   0.001210
 Sum of Mulliken charges =   2.00000   4.00000
 Mulliken charges and spin densities with hydrogens summed into heavy atoms:
               1          2
     1  O    0.226431   0.048330
     2  O    0.225857   0.047837
     3  O    0.226608   0.046788
     4  O    0.225688   0.049366
     5  O   -0.332583   0.753849
    14  Fe   1.115434   3.062928
    15  N    0.312565  -0.009096
 Electronic spatial extent (au):  <R**2>=           1034.1822
 Charge=              2.0000 electrons
 Dipole moment (field-independent basis, Debye):
    X=             -0.1329    Y=              0.0976    Z=              3.0333  Tot=              3.0377
 Quadrupole moment (field-independent basis, Debye-Ang):
   XX=            -15.8932   YY=            -15.8266   ZZ=            -26.6954
   XY=              0.0425   XZ=              0.0351   YZ=              0.6495
 Traceless Quadrupole moment (field-independent basis, Debye-Ang):
   XX=              3.5785   YY=              3.6451   ZZ=             -7.2237
   XY=              0.0425   XZ=              0.0351   YZ=              0.6495
 Octapole moment (field-independent basis, Debye-Ang**2):
  XXX=              1.7800  YYY=              1.3941  ZZZ=             33.7965  XYY=             -0.6840
  XXY=              0.0569  XXZ=             -8.4400  XZZ=             -2.1849  YZZ=              0.4901
  YYZ=             -8.5150  XYZ=              0.0533
 Hexadecapole moment (field-independent basis, Debye-Ang**3):
 XXXX=           -229.9862 YYYY=           -229.2955 ZZZZ=           -218.5866 XXXY=             54.8256
 XXXZ=             -0.5783 YYYX=            -54.7749 YYYZ=              2.0433 ZZZX=              0.1405
 ZZZY=              0.7630 XXYY=            -14.5415 XXZZ=            -75.5988 YYZZ=            -75.2756
 XXYZ=              3.7101 YYXZ=              3.0398 ZZXY=              0.4122
 N-N= 5.099218867214D+02 E-N=-2.308420081912D+03  KE= 5.025744077205D+02
                          Isotropic Fermi Contact Couplings
        Atom                 a.u.       MegaHertz       Gauss      10(-4) cm-1
     1  O(17)              0.08563     -12.97740      -4.63066      -4.32880
     2  O(17)              0.08572     -12.99049      -4.63533      -4.33316
     3  O(17)              0.08288     -12.56072      -4.48198      -4.18980
     4  O(17)              0.08850     -13.41172      -4.78563      -4.47367
     5  O(17)              0.11050     -16.74638      -5.97552      -5.58599
     6  H(1)               0.00076       0.84474       0.30142       0.28177
     7  H(1)              -0.00006      -0.07208      -0.02572      -0.02404
     8  H(1)               0.00077       0.86002       0.30687       0.28687
     9  H(1)              -0.00008      -0.08724      -0.03113      -0.02910
    10  H(1)              -0.00009      -0.10175      -0.03631      -0.03394
    11  H(1)               0.00080       0.89317       0.31870       0.29793
    12  H(1)               0.00072       0.79945       0.28527       0.26667
    13  H(1)              -0.00004      -0.04223      -0.01507      -0.01409
    14  Fe(57)             0.00007       0.00243       0.00087       0.00081
    15  N(14)             -0.00452      -0.36505      -0.13026      -0.12177
    16  H(1)               0.00072       0.80545       0.28740       0.26867
    17  H(1)               0.00076       0.84598       0.30187       0.28219
    18  H(1)               0.00073       0.81884       0.29218       0.27314
 --------------------------------------------------------
       Center         ----  Spin Dipole Couplings  ----
                      3XX-RR        3YY-RR        3ZZ-RR
 --------------------------------------------------------
     1   Atom        0.197961     -0.061071     -0.136890
     2   Atom        0.198690     -0.064233     -0.134457
     3   Atom       -0.067283      0.200487     -0.133204
     4   Atom       -0.056664      0.194924     -0.138261
     5   Atom        1.244813      1.247168     -2.491981
     6   Atom        0.018802      0.002079     -0.020881
     7   Atom        0.037677     -0.024814     -0.012863
     8   Atom        0.019199     -0.000280     -0.018919
     9   Atom        0.040802     -0.025708     -0.015093
    10   Atom       -0.025482      0.039987     -0.014505
    11   Atom        0.003094      0.017845     -0.020939
    12   Atom       -0.001171      0.020205     -0.019033
    13   Atom       -0.025062      0.038693     -0.013631
    14   Atom        1.519831      1.521515     -3.041346
    15   Atom       -0.031303     -0.031421      0.062724
    16   Atom       -0.015406     -0.023135      0.038541
    17   Atom       -0.023123     -0.017418      0.040541
    18   Atom       -0.021362     -0.019608      0.040970
 --------------------------------------------------------
                        XY            XZ            YZ
 --------------------------------------------------------
     1   Atom        0.060737     -0.018065      0.015868
     2   Atom        0.057427      0.031611     -0.011361
     3   Atom       -0.067884     -0.009784     -0.029619
     4   Atom       -0.051332      0.016872      0.021210
     5   Atom        0.000541      0.077480      0.029969
     6   Atom        0.034559     -0.013382     -0.014768
     7   Atom        0.026648      0.021489      0.007772
     8   Atom        0.032961      0.016068      0.016219
     9   Atom        0.026287     -0.018715     -0.006427
    10   Atom       -0.026008     -0.006567      0.019481
    11   Atom       -0.034339      0.015495     -0.013969
    12   Atom       -0.033194     -0.015463      0.015542
    13   Atom       -0.026717      0.007411     -0.020666
    14   Atom       -0.002114      0.119813      0.027151
    15   Atom       -0.000053     -0.002967     -0.000146
    16   Atom       -0.001022     -0.024137      0.003451
    17   Atom       -0.001180      0.004833     -0.021336
    18   Atom        0.002155      0.011438      0.016119
 --------------------------------------------------------


 ---------------------------------------------------------------------------------
              Anisotropic Spin Dipole Couplings in Principal Axis System
 ---------------------------------------------------------------------------------

       Atom             a.u.   MegaHertz   Gauss  10(-4) cm-1        Axes

              Baa    -0.1430    10.345     3.691     3.451  0.0969 -0.2581  0.9612
     1 O(17)  Bbb    -0.0691     5.000     1.784     1.668 -0.1958  0.9420  0.2727
              Bcc     0.2121   -15.346    -5.476    -5.119  0.9758  0.2146 -0.0408
 
              Baa    -0.1415    10.240     3.654     3.416 -0.1296  0.2378  0.9626
     2 O(17)  Bbb    -0.0715     5.176     1.847     1.727 -0.1719  0.9507 -0.2580
              Bcc     0.2130   -15.416    -5.501    -5.142  0.9766  0.1989  0.0823
 
              Baa    -0.1399    10.126     3.613     3.378  0.2542  0.1340  0.9578
     3 O(17)  Bbb    -0.0788     5.700     2.034     1.901  0.9399  0.1991 -0.2773
              Bcc     0.2187   -15.826    -5.647    -5.279 -0.2278  0.9708 -0.0754
 
              Baa    -0.1446    10.464     3.734     3.490 -0.2418 -0.0969  0.9655
     4 O(17)  Bbb    -0.0613     4.434     1.582     1.479  0.9519  0.1696  0.2554
              Bcc     0.2059   -14.898    -5.316    -4.970 -0.1885  0.9807  0.0512
 
              Baa    -2.4938   180.452    64.390    60.192 -0.0207 -0.0080  0.9998
     5 O(17)  Bbb     1.2457   -90.134   -32.162   -30.066  0.8341 -0.5515  0.0129
              Bcc     1.2482   -90.317   -32.227   -30.127  0.5513  0.8341  0.0181
 
              Baa    -0.0289   -15.439    -5.509    -5.150 -0.2462  0.6265  0.7395
     6 H(1)   Bbb    -0.0224   -11.960    -4.268    -3.990  0.6126 -0.4907  0.6196
              Bcc     0.0514    27.399     9.777     9.139  0.7511  0.6056 -0.2630
 
              Baa    -0.0346   -18.480    -6.594    -6.164 -0.3481  0.9374  0.0090
     7 H(1)   Bbb    -0.0205   -10.957    -3.910    -3.655 -0.2955 -0.1188  0.9479
              Bcc     0.0552    29.437    10.504     9.819  0.8897  0.3273  0.3184
 
              Baa    -0.0288   -15.385    -5.490    -5.132  0.1960 -0.6455  0.7382
     8 H(1)   Bbb    -0.0223   -11.892    -4.243    -3.967  0.6269 -0.4963 -0.6005
              Bcc     0.0511    27.277     9.733     9.099  0.7540  0.5805  0.3074
 
              Baa    -0.0348   -18.591    -6.634    -6.201 -0.3293  0.9442 -0.0047
     9 H(1)   Bbb    -0.0206   -11.013    -3.930    -3.673  0.2534  0.0932  0.9629
              Bcc     0.0555    29.604    10.563     9.875  0.9096  0.3159 -0.2700
 
              Baa    -0.0346   -18.439    -6.579    -6.151  0.9429  0.3328 -0.0145
    10 H(1)   Bbb    -0.0206   -10.975    -3.916    -3.661  0.1073 -0.2624  0.9590
              Bcc     0.0551    29.414    10.496     9.812 -0.3153  0.9058  0.2831
 
              Baa    -0.0291   -15.503    -5.532    -5.171 -0.5888 -0.1977  0.7837
    11 H(1)   Bbb    -0.0224   -11.956    -4.266    -3.988  0.5262  0.6423  0.5574
              Bcc     0.0515    27.460     9.798     9.160 -0.6135  0.7405 -0.2742
 
              Baa    -0.0288   -15.340    -5.474    -5.117  0.6767  0.2376  0.6969
    12 H(1)   Bbb    -0.0223   -11.924    -4.255    -3.977 -0.4624 -0.5994  0.6534
              Bcc     0.0511    27.263     9.728     9.094 -0.5729  0.7644  0.2957
 
              Baa    -0.0348   -18.556    -6.621    -6.190  0.9392  0.3433  0.0064
    13 H(1)   Bbb    -0.0206   -10.998    -3.925    -3.669 -0.1098  0.2826  0.9529
              Bcc     0.0554    29.554    10.546     9.858 -0.3254  0.8957 -0.3031
 
              Baa    -3.0447   -52.712   -18.809   -17.583 -0.0262 -0.0060  0.9996
    14 Fe(57) Bbb     1.5208    26.329     9.395     8.782  0.5378  0.8429  0.0191
              Bcc     1.5239    26.383     9.414     8.800  0.8427 -0.5381  0.0189
 
              Baa    -0.0315    -1.214    -0.433    -0.405  0.6289  0.7772  0.0210
    15 N(14)  Bbb    -0.0314    -1.209    -0.431    -0.403  0.7769 -0.6292  0.0235
              Bcc     0.0628     2.423     0.864     0.808 -0.0315 -0.0015  0.9995
 
              Baa    -0.0247   -13.170    -4.700    -4.393  0.9121 -0.1979  0.3590
    16 H(1)   Bbb    -0.0233   -12.411    -4.428    -4.140  0.2027  0.9789  0.0245
              Bcc     0.0479    25.581     9.128     8.533 -0.3563  0.0504  0.9330
 
              Baa    -0.0246   -13.105    -4.676    -4.371 -0.3327  0.8885  0.3159
    17 H(1)   Bbb    -0.0233   -12.449    -4.442    -4.153  0.9404  0.3374  0.0415
              Bcc     0.0479    25.554     9.118     8.524  0.0697 -0.3109  0.9479
 
              Baa    -0.0242   -12.895    -4.601    -4.301  0.6184  0.7306 -0.2894
    18 H(1)   Bbb    -0.0228   -12.165    -4.341    -4.058  0.7677 -0.6403  0.0241
              Bcc     0.0470    25.060     8.942     8.359  0.1677  0.2371  0.9569
 

 ---------------------------------------------------------------------------------

   1 Symmetry operations used in ECPInt.
 ECPInt:  NShTT=    2145 NPrTT=    9747 LenC2=    2120 LenP2D=    7204.
 LDataN:  DoStor=T MaxTD1= 5 Len=  102
 Calling FoFJK, ICntrl=      2127 FMM=F ISym2X=0 I1Cent= 0 IOpClX= 1 NMat=1 NMatS=1 NMatT=0.
 ***** Axes restored to original set *****
 -------------------------------------------------------------------
 Center     Atomic                   Forces (Hartrees/Bohr)
 Number     Number              X              Y              Z
 -------------------------------------------------------------------
      1        8           0.006537664   -0.001685472   -0.004759439
      2        8          -0.006783791    0.001780490   -0.004645093
      3        8           0.001452777    0.006776454   -0.005425649
      4        8          -0.001951154   -0.006395178   -0.004013720
      5        8           0.000154091   -0.000082476    0.011857520
      6        1          -0.003961380    0.005406105    0.000173014
      7        1          -0.002222205    0.003156420    0.004856134
      8        1           0.004015398   -0.005281815   -0.000079004
      9        1           0.002362257   -0.003192591    0.004716840
     10        1          -0.003052078   -0.002279535    0.005038729
     11        1          -0.005220025   -0.004098393    0.000521148
     12        1           0.005447077    0.003777316   -0.000382029
     13        1           0.003331517    0.002256123    0.004527358
     14       26          -0.000081990   -0.000003165   -0.005401401
     15        7           0.000137043   -0.000276032    0.005937339
     16        1           0.001783030    0.002779226   -0.004322833
     17        1          -0.003291192    0.000257996   -0.004207026
     18        1           0.001342960   -0.002895472   -0.004391889
 -------------------------------------------------------------------
 Cartesian Forces:  Max     0.011857520 RMS     0.004083792

 GradGradGradGradGradGradGradGradGradGradGradGradGradGradGradGradGradGrad
 Berny optimization.
 FormGI is forming the generalized inverse of G from B-inverse, IUseBI=4.
 Internal  Forces:  Max     0.011858791 RMS     0.002878614
 Search for a local minimum.
 Step number   1 out of a maximum of  108
 All quantities printed in internal units (Hartrees-Bohrs-Radians)
 Mixed Optimization -- RFO/linear search
 Second derivative matrix not updated -- first step.
 ITU=  0
     Eigenvalues ---    0.00242   0.00381   0.00457   0.00494   0.00573
     Eigenvalues ---    0.01676   0.01751   0.01788   0.01868   0.03869
     Eigenvalues ---    0.04025   0.06540   0.06546   0.06590   0.06632
     Eigenvalues ---    0.07375   0.07416   0.10202   0.10442   0.10577
     Eigenvalues ---    0.10642   0.10785   0.12731   0.12743   0.14393
     Eigenvalues ---    0.16000   0.16000   0.16000   0.16000   0.16000
     Eigenvalues ---    0.16000   0.16000   0.16000   0.16000   0.16000
     Eigenvalues ---    0.16000   0.43024   0.43052   0.43094   0.45985
     Eigenvalues ---    0.52240   0.52266   0.52286   0.52321   0.52421
     Eigenvalues ---    0.52481   0.52514   0.52573
 RFO step:  Lambda=-4.49648454D-03 EMin= 2.42086493D-03
 Linear search not attempted -- first point.
 Iteration  1 RMS(Cart)=  0.03528948 RMS(Int)=  0.00041172
 Iteration  2 RMS(Cart)=  0.00041614 RMS(Int)=  0.00013012
 Iteration  3 RMS(Cart)=  0.00000010 RMS(Int)=  0.00013012
 Variable       Old X    -DE/DX   Delta X   Delta X   Delta X     New X
                                 (Linear)    (Quad)   (Total)
    R1        1.84141  -0.00562   0.00000  -0.01063  -0.01063   1.83079
    R2        1.84326  -0.00554   0.00000  -0.01051  -0.01051   1.83276
    R3        4.00769  -0.00688   0.00000  -0.06204  -0.06204   3.94565
    R4        1.84110  -0.00566   0.00000  -0.01068  -0.01068   1.83042
    R5        1.84346  -0.00551   0.00000  -0.01045  -0.01045   1.83301
    R6        4.01288  -0.00670   0.00000  -0.06081  -0.06081   3.95207
    R7        1.84370  -0.00557   0.00000  -0.01058  -0.01058   1.83312
    R8        1.84198  -0.00557   0.00000  -0.01054  -0.01054   1.83144
    R9        4.02379  -0.00683   0.00000  -0.06270  -0.06270   3.96109
   R10        1.84055  -0.00565   0.00000  -0.01066  -0.01066   1.82989
   R11        1.84293  -0.00546   0.00000  -0.01036  -0.01036   1.83257
   R12        3.99642  -0.00683   0.00000  -0.06081  -0.06081   3.93561
   R13        3.02899  -0.01186   0.00000  -0.02554  -0.02554   3.00345
   R14        4.04364  -0.00698   0.00000  -0.06554  -0.06554   3.97810
   R15        1.94340  -0.00474   0.00000  -0.01090  -0.01090   1.93251
   R16        1.94306  -0.00470   0.00000  -0.01082  -0.01082   1.93224
   R17        1.94254  -0.00481   0.00000  -0.01106  -0.01106   1.93148
    A1        1.82467   0.00252   0.00000   0.03112   0.03072   1.85540
    A2        2.16460  -0.00294   0.00000  -0.00701  -0.00729   2.15731
    A3        1.99634   0.00043   0.00000   0.01446   0.01416   2.01049
    A4        1.82100   0.00235   0.00000   0.03099   0.03054   1.85154
    A5        2.16543  -0.00252   0.00000  -0.00408  -0.00439   2.16104
    A6        1.98383   0.00029   0.00000   0.01420   0.01385   1.99768
    A7        1.81735   0.00247   0.00000   0.03320   0.03274   1.85009
    A8        1.98514   0.00046   0.00000   0.01585   0.01552   2.00066
    A9        2.13842  -0.00283   0.00000  -0.00531  -0.00562   2.13280
   A10        1.82843   0.00245   0.00000   0.02899   0.02863   1.85706
   A11        2.18846  -0.00268   0.00000  -0.00624  -0.00651   2.18195
   A12        1.99892   0.00025   0.00000   0.01248   0.01218   2.01111
   A13        1.56320  -0.00001   0.00000  -0.00008  -0.00012   1.56309
   A14        1.58984   0.00011   0.00000   0.00151   0.00143   1.59127
   A15        1.58859   0.00062   0.00000   0.00775   0.00775   1.59633
   A16        1.54027  -0.00081   0.00000  -0.01046  -0.01046   1.52981
   A17        1.55050  -0.00016   0.00000  -0.00212  -0.00218   1.54833
   A18        1.57846  -0.00002   0.00000  -0.00037  -0.00046   1.57799
   A19        1.58644   0.00048   0.00000   0.00786   0.00787   1.59431
   A20        1.56803  -0.00029   0.00000  -0.00515  -0.00515   1.56287
   A21        1.59368   0.00055   0.00000   0.00764   0.00764   1.60133
   A22        1.55315  -0.00055   0.00000  -0.00768  -0.00768   1.54547
   A23        1.58344   0.00056   0.00000   0.00801   0.00801   1.59144
   A24        1.55307  -0.00055   0.00000  -0.00791  -0.00790   1.54517
   A25        1.98824  -0.00231   0.00000  -0.01452  -0.01460   1.97364
   A26        1.98815  -0.00208   0.00000  -0.01244  -0.01251   1.97565
   A27        2.01314  -0.00199   0.00000  -0.01180  -0.01186   2.00128
   A28        1.81578   0.00245   0.00000   0.01444   0.01436   1.83015
   A29        1.81802   0.00251   0.00000   0.01490   0.01483   1.83285
   A30        1.81847   0.00246   0.00000   0.01573   0.01569   1.83416
   A31        3.11371  -0.00017   0.00000  -0.00221  -0.00229   3.11141
   A32        3.15304   0.00010   0.00000   0.00142   0.00132   3.15436
   A33        3.12886  -0.00019   0.00000  -0.00271  -0.00271   3.12615
   A34        3.17440   0.00109   0.00000   0.01536   0.01535   3.18975
   A35        3.10585  -0.00112   0.00000  -0.01578  -0.01579   3.09007
   A36        3.14693  -0.00000   0.00000  -0.00002  -0.00002   3.14691
    D1        0.61213   0.00007   0.00000   0.01674   0.01679   0.62892
    D2       -2.49372   0.00119   0.00000   0.03251   0.03258  -2.46115
    D3        2.20568   0.00061   0.00000   0.02432   0.02438   2.23006
    D4       -0.94125   0.00061   0.00000   0.02435   0.02440  -0.91685
    D5       -1.65144  -0.00129   0.00000  -0.04518  -0.04524  -1.69669
    D6        1.52589  -0.00018   0.00000  -0.02941  -0.02946   1.49643
    D7       -0.05789  -0.00075   0.00000  -0.03760  -0.03765  -0.09554
    D8        3.07837  -0.00075   0.00000  -0.03758  -0.03763   3.04073
    D9       -2.47837   0.00120   0.00000   0.03340   0.03345  -2.44492
   D10        0.62789   0.00010   0.00000   0.01787   0.01795   0.64583
   D11        2.21144   0.00067   0.00000   0.02594   0.02601   2.23745
   D12       -0.92516   0.00066   0.00000   0.02582   0.02589  -0.89927
   D13        1.56179  -0.00022   0.00000  -0.02993  -0.03000   1.53179
   D14       -1.61514  -0.00132   0.00000  -0.04545  -0.04551  -1.66065
   D15       -0.03158  -0.00075   0.00000  -0.03738  -0.03745  -0.06903
   D16        3.11500  -0.00076   0.00000  -0.03750  -0.03756   3.07743
   D17        1.48685  -0.00020   0.00000  -0.03325  -0.03333   1.45353
   D18       -1.68755  -0.00128   0.00000  -0.04861  -0.04867  -1.73622
   D19       -0.10156  -0.00081   0.00000  -0.04095  -0.04102  -0.14258
   D20        3.02726  -0.00100   0.00000  -0.04366  -0.04373   2.98352
   D21       -2.58622   0.00129   0.00000   0.03107   0.03114  -2.55508
   D22        0.52256   0.00021   0.00000   0.01571   0.01579   0.53835
   D23        2.10855   0.00068   0.00000   0.02338   0.02345   2.13200
   D24       -1.04582   0.00049   0.00000   0.02067   0.02073  -1.02509
   D25        0.71615  -0.00005   0.00000   0.01743   0.01747   0.73362
   D26       -2.39166   0.00107   0.00000   0.03328   0.03333  -2.35833
   D27        2.30498   0.00059   0.00000   0.02536   0.02541   2.33039
   D28       -0.82377   0.00078   0.00000   0.02808   0.02813  -0.79564
   D29       -1.58582  -0.00132   0.00000  -0.04256  -0.04262  -1.62844
   D30        1.58955  -0.00020   0.00000  -0.02671  -0.02676   1.56279
   D31        0.00301  -0.00069   0.00000  -0.03464  -0.03469  -0.03167
   D32       -3.12574  -0.00050   0.00000  -0.03192  -0.03196   3.12548
   D33       -0.55191  -0.00006   0.00000  -0.00098  -0.00096  -0.55287
   D34        1.52742  -0.00011   0.00000  -0.00213  -0.00211   1.52532
   D35       -2.65357  -0.00002   0.00000  -0.00015  -0.00014  -2.65371
   D36        2.61699   0.00007   0.00000   0.00071   0.00069   2.61768
   D37       -1.58686   0.00002   0.00000  -0.00045  -0.00046  -1.58732
   D38        0.51533   0.00011   0.00000   0.00153   0.00151   0.51684
   D39       -2.11565  -0.00008   0.00000  -0.00131  -0.00134  -2.11699
   D40       -0.03632  -0.00013   0.00000  -0.00246  -0.00248  -0.03880
   D41        2.06588  -0.00005   0.00000  -0.00048  -0.00052   2.06536
   D42        1.03848   0.00008   0.00000   0.00097   0.00099   1.03948
   D43        3.11781   0.00003   0.00000  -0.00019  -0.00015   3.11766
   D44       -1.06318   0.00012   0.00000   0.00180   0.00182  -1.06136
         Item               Value     Threshold  Converged?
 Maximum Force            0.011859     0.000450     NO 
 RMS     Force            0.002879     0.000300     NO 
 Maximum Displacement     0.115230     0.001800     NO 
 RMS     Displacement     0.035481     0.001200     NO 
 Predicted change in Energy=-2.397475D-03
 GradGradGradGradGradGradGradGradGradGradGradGradGradGradGradGradGradGrad

                          Input orientation:                          
 ---------------------------------------------------------------------
 Center     Atomic      Atomic             Coordinates (Angstroms)
 Number     Number       Type             X           Y           Z
 ---------------------------------------------------------------------
      1          8           0       -0.061601   -2.095781   -0.058083
      2          8           0        0.129375    2.077427   -0.042367
      3          8           0        2.097471   -0.089753   -0.061902
      4          8           0       -2.075430    0.099409   -0.033369
      5          8           0       -0.015217   -0.000881   -1.690343
      6          1           0        0.565333   -2.641580    0.439564
      7          1           0       -0.168956   -2.523381   -0.921939
      8          1           0       -0.464284    2.638956    0.477702
      9          1           0        0.205381    2.499829   -0.912236
     10          1           0        2.513044   -0.226885   -0.927629
     11          1           0        2.631802    0.582408    0.387491
     12          1           0       -2.642530   -0.449331    0.527844
     13          1           0       -2.514790    0.154308   -0.896140
     14         26           0        0.003265   -0.009286   -0.101117
     15          7           0        0.015543   -0.052567    2.003525
     16          1           0       -0.500986   -0.845454    2.391232
     17          1           0        0.954947   -0.132846    2.399229
     18          1           0       -0.391447    0.772150    2.449484
 ---------------------------------------------------------------------
                    Distance matrix (angstroms):
                    1          2          3          4          5
     1  O    0.000000
     2  O    4.177605   0.000000
     3  O    2.947161   2.927534   0.000000
     4  O    2.979090   2.962060   4.177284   0.000000
     5  O    2.656131   2.656331   2.668927   2.645769   0.000000
     6  H    0.968811   4.763543   3.018399   3.835402   3.441923
     7  H    0.969852   4.693621   3.434952   3.362026   2.641417
     8  H    4.781941   0.968616   3.781483   3.050621   3.445405
     9  H    4.681932   0.969986   3.317982   3.425861   2.628243
    10  H    3.298133   3.431533   0.970046   4.686178   2.650455
    11  H    3.824350   2.946523   0.969157   4.750625   3.415308
    12  H    3.116938   3.793824   4.790063   0.968338   3.467597
    13  H    3.432693   3.379190   4.693450   0.969755   2.627301
    14  Fe   2.087947   2.091346   2.096119   2.082637   1.589356
    15  N    2.903601   2.955588   2.932882   2.923046   3.694357
    16  H    2.784873   3.855255   3.652524   3.041435   4.196252
    17  H    3.305278   3.395330   2.713740   3.892898   4.205144
    18  H    3.823836   2.860826   3.639321   3.074564   4.228155
                    6          7          8          9         10
     6  H    0.000000
     7  H    1.551400   0.000000
     8  H    5.380114   5.356858   0.000000
     9  H    5.328322   5.037148   1.549108   0.000000
    10  H    3.390214   3.530871   4.364915   3.572186   0.000000
    11  H    3.829766   4.382325   3.717966   3.354595   1.548742
    12  H    3.886403   3.538660   3.779522   4.345339   5.361700
    13  H    4.369010   3.560002   3.502213   3.591805   5.042362
    14  Fe   2.745401   2.650298   2.750785   2.644697   2.651314
    15  N    3.074285   3.833705   3.130921   3.879745   3.854810
    16  H    2.858690   3.728643   3.975432   4.754237   4.525687
    17  H    3.207153   4.243580   3.659149   4.296350   3.674847
    18  H    4.075385   4.719801   2.716283   3.826518   4.564979
                   11         12         13         14         15
    11  H    0.000000
    12  H    5.376129   0.000000
    13  H    5.321502   1.551910   0.000000
    14  Fe   2.738256   2.754897   2.645643   0.000000
    15  N    3.139994   3.066009   3.854016   2.105122   0.000000
    16  H    3.983482   2.866241   3.982680   2.676798   1.022638
    17  H    2.714870   4.067442   4.793849   2.678189   1.022500
    18  H    3.664403   3.201889   4.010426   2.696666   1.022096
                   16         17         18
    16  H    0.000000
    17  H    1.620991   0.000000
    18  H    1.622355   1.623059   0.000000
 Stoichiometry    FeH11NO5(2+,5)
 Framework group  C1[X(FeH11NO5)]
 Deg. of freedom    48
 Full point group                 C1      NOp   1
 Largest Abelian subgroup         C1      NOp   1
 Largest concise Abelian subgroup C1      NOp   1
                         Standard orientation:                         
 ---------------------------------------------------------------------
 Center     Atomic      Atomic             Coordinates (Angstroms)
 Number     Number       Type             X           Y           Z
 ---------------------------------------------------------------------
      1          8           0       -2.004568   -0.570418   -0.132160
      2          8           0        2.024276    0.527529   -0.008417
      3          8           0        0.565538   -2.010359   -0.049204
      4          8           0       -0.533335    2.019629   -0.086264
      5          8           0        0.050393    0.014150   -1.710275
      6          1           0       -2.346353   -1.330330    0.362118
      7          1           0       -2.419193   -0.606556   -1.008169
      8          1           0        2.361632    1.269086    0.515512
      9          1           0        2.474761    0.577444   -0.865998
     10          1           0        0.587504   -2.455170   -0.910975
     11          1           0        1.355684   -2.309085    0.425872
     12          1           0       -1.245464    2.395821    0.451351
     13          1           0       -0.590578    2.447444   -0.954666
     14         26           0        0.001851    0.007243   -0.121676
     15          7           0       -0.096759   -0.000152    1.981122
     16          1           0       -1.020660    0.251600    2.340032
     17          1           0        0.103062   -0.915585    2.390463
     18          1           0        0.550347    0.643815    2.440732
 ---------------------------------------------------------------------
 Rotational constants (GHZ):           1.7267489           1.7260530           1.5012804
 Basis read from rwf:  (6D, 7F)
 Pseudo-potential data read from rwf file.
 There are   169 symmetry adapted cartesian basis functions of A   symmetry.
 There are   169 symmetry adapted basis functions of A   symmetry.
   169 basis functions,   297 primitive gaussians,   169 cartesian basis functions
    38 alpha electrons       34 beta electrons
       nuclear repulsion energy       516.8429976084 Hartrees.
 NAtoms=   18 NActive=   18 NUniq=   18 SFac= 1.00D+00 NAtFMM=   60 NAOKFM=F Big=F
 Integral buffers will be    131072 words long.
 Raffenetti 2 integral format.
 Two-electron integral symmetry is turned on.
 Nuclear repulsion after empirical dispersion term =      516.8325688870 Hartrees.
 One-electron integrals computed using PRISM.
   1 Symmetry operations used in ECPInt.
 ECPInt:  NShTT=    2145 NPrTT=    9747 LenC2=    2122 LenP2D=    7239.
 LDataN:  DoStor=T MaxTD1= 4 Len=   56
 NBasis=   169 RedAO= T EigKep=  5.33D-03  NBF=   169
 NBsUse=   169 1.00D-06 EigRej= -1.00D+00 NBFU=   169
 Initial guess from the checkpoint file:  "w2.chk"
 B after Tr=    -0.000000   -0.000000    0.000000
         Rot=    0.998696   -0.000826    0.002367    0.050986 Ang=  -5.85 deg.
 Initial guess <Sx>= 0.0000 <Sy>= 0.0000 <Sz>= 2.0000 <S**2>= 6.0671 S= 2.0134
 ExpMin= 2.20D-02 ExpMax= 5.48D+03 ExpMxC= 8.25D+02 IAcc=3 IRadAn=         5 AccDes= 0.00D+00
 Harris functional with IExCor= 4639 and IRadAn=      -1 diagonalized for initial guess.
 HarFok:  IExCor= 4639 AccDes= 0.00D+00 IRadAn=        -1 IDoV= 1 UseB2=F ITyADJ=14
 ICtDFT=  3500011 ScaDFX=  1.000000  1.000000  1.000000  1.000000
 FoFCou: FMM=F IPFlag=           0 FMFlag=      100000 FMFlg1=           0
         NFxFlg=           0 DoJE=T BraDBF=F KetDBF=T FulRan=T
         wScrn=  0.000000 ICntrl=       500 IOpCl=  0 I1Cent=   200000004 NGrid=           0
         NMat0=    1 NMatS0=      1 NMatT0=    0 NMatD0=    1 NMtDS0=    0 NMtDT0=    0
 Petite list used in FoFCou.
 Requested convergence on RMS density matrix=1.00D-08 within 128 cycles.
 Requested convergence on MAX density matrix=1.00D-06.
 Requested convergence on             energy=1.00D-06.
 No special actions if energy rises.
 SCF Done:  E(UwB97XD) =  -560.233700950     A.U. after   19 cycles
            NFock= 19  Conv=0.45D-08     -V/T= 2.1143
 <Sx>= 0.0000 <Sy>= 0.0000 <Sz>= 2.0000 <S**2>= 6.0568 S= 2.0113
 <L.S>=  0.00000000000    
 Annihilation of the first spin contaminant:
 S**2 before annihilation     6.0568,   after     6.0005
   1 Symmetry operations used in ECPInt.
 ECPInt:  NShTT=    2145 NPrTT=    9747 LenC2=    2122 LenP2D=    7239.
 LDataN:  DoStor=T MaxTD1= 5 Len=  102
 Calling FoFJK, ICntrl=      2127 FMM=F ISym2X=0 I1Cent= 0 IOpClX= 1 NMat=1 NMatS=1 NMatT=0.
 ***** Axes restored to original set *****
 -------------------------------------------------------------------
 Center     Atomic                   Forces (Hartrees/Bohr)
 Number     Number              X              Y              Z
 -------------------------------------------------------------------
      1        8           0.002048639    0.001270558   -0.001332992
      2        8          -0.002162054   -0.001390986   -0.001289961
      3        8          -0.001441780    0.001967022   -0.001448925
      4        8           0.001155605   -0.002182911   -0.001132580
      5        8          -0.000075965    0.000033225   -0.001556210
      6        1          -0.000767563    0.000887030    0.000372553
      7        1          -0.001007990   -0.000307967    0.000952661
      8        1           0.000930657   -0.000738365    0.000208774
      9        1           0.001002158    0.000245077    0.000924880
     10        1           0.000375390   -0.000937492    0.001115369
     11        1          -0.000834257   -0.000748547    0.000204175
     12        1           0.000832303    0.000900746    0.000356758
     13        1          -0.000169225    0.001059242    0.000763149
     14       26           0.000233790    0.000104006    0.002162807
     15        7          -0.000005586    0.000031162    0.002067291
     16        1           0.000024571    0.000054464   -0.000894977
     17        1          -0.000191979   -0.000050600   -0.000778235
     18        1           0.000053286   -0.000195664   -0.000694536
 -------------------------------------------------------------------
 Cartesian Forces:  Max     0.002182911 RMS     0.001041240

 GradGradGradGradGradGradGradGradGradGradGradGradGradGradGradGradGradGrad
 Berny optimization.
 Using GEDIIS/GDIIS optimizer.
 FormGI is forming the generalized inverse of G from B-inverse, IUseBI=4.
 Internal  Forces:  Max     0.001912846 RMS     0.000635989
 Search for a local minimum.
 Step number   2 out of a maximum of  108
 All quantities printed in internal units (Hartrees-Bohrs-Radians)
 Mixed Optimization -- En-DIIS/RFO-DIIS
 Update second derivatives using D2CorX and points    1    2
 DE= -2.85D-03 DEPred=-2.40D-03 R= 1.19D+00
 TightC=F SS=  1.41D+00  RLast= 2.49D-01 DXNew= 5.0454D-01 7.4709D-01
 Trust test= 1.19D+00 RLast= 2.49D-01 DXMaxT set to 5.05D-01
 ITU=  1  0
 Use linear search instead of GDIIS.
     Eigenvalues ---    0.00242   0.00380   0.00457   0.00493   0.00572
     Eigenvalues ---    0.01440   0.01572   0.01615   0.01680   0.03979
     Eigenvalues ---    0.04147   0.06375   0.06534   0.06549   0.06588
     Eigenvalues ---    0.07373   0.07416   0.09317   0.10433   0.10496
     Eigenvalues ---    0.10612   0.10742   0.12730   0.12746   0.14389
     Eigenvalues ---    0.15456   0.16000   0.16000   0.16000   0.16000
     Eigenvalues ---    0.16000   0.16000   0.16000   0.16000   0.16000
     Eigenvalues ---    0.16511   0.43026   0.43039   0.43085   0.47897
     Eigenvalues ---    0.52236   0.52268   0.52299   0.52345   0.52441
     Eigenvalues ---    0.52489   0.52503   0.52581
 RFO step:  Lambda=-3.45524005D-04 EMin= 2.42084672D-03
 Quartic linear search produced a step of  0.29773.
 Iteration  1 RMS(Cart)=  0.01745687 RMS(Int)=  0.00042147
 Iteration  2 RMS(Cart)=  0.00040214 RMS(Int)=  0.00017498
 Iteration  3 RMS(Cart)=  0.00000013 RMS(Int)=  0.00017498
 Variable       Old X    -DE/DX   Delta X   Delta X   Delta X     New X
                                 (Linear)    (Quad)   (Total)
    R1        1.83079  -0.00080  -0.00316   0.00056  -0.00260   1.82819
    R2        1.83276  -0.00060  -0.00313   0.00103  -0.00210   1.83066
    R3        3.94565  -0.00186  -0.01847  -0.00632  -0.02480   3.92085
    R4        1.83042  -0.00088  -0.00318   0.00038  -0.00280   1.82762
    R5        1.83301  -0.00065  -0.00311   0.00091  -0.00220   1.83080
    R6        3.95207  -0.00190  -0.01810  -0.00726  -0.02536   3.92671
    R7        1.83312  -0.00070  -0.00315   0.00080  -0.00235   1.83077
    R8        1.83144  -0.00088  -0.00314   0.00035  -0.00279   1.82865
    R9        3.96109  -0.00191  -0.01867  -0.00722  -0.02589   3.93520
   R10        1.82989  -0.00079  -0.00317   0.00061  -0.00256   1.82733
   R11        1.83257  -0.00054  -0.00308   0.00114  -0.00194   1.83063
   R12        3.93561  -0.00183  -0.01810  -0.00600  -0.02411   3.91151
   R13        3.00345   0.00156  -0.00760   0.01053   0.00293   3.00638
   R14        3.97810  -0.00030  -0.01951   0.01347  -0.00604   3.97206
   R15        1.93251  -0.00039  -0.00324   0.00144  -0.00180   1.93070
   R16        1.93224  -0.00047  -0.00322   0.00118  -0.00204   1.93021
   R17        1.93148  -0.00048  -0.00329   0.00121  -0.00208   1.92940
    A1        1.85540   0.00005   0.00915   0.00388   0.01250   1.86789
[...]
 3732093,-0.0612218,-0.0009655,-0.0017525,0.3687013,-0.0433384,0.006262
 7,-0.1109156,0.3705384,0.3750667,0.0737116,0.0114556,0.039513,0.368699
 7,0.0902737,0.0055905,0.1121302,0.3402931,0.3689648,-0.0454397,0.00606
 22,0.008299,0.3741702,0.0457782,0.0053752,0.1135533,0.3680188,0.373760
 3,0.0566833,-0.0176805,0.0329153,0.3655803,-0.096001,-0.013135,-0.1129
 246,0.3378959,0.3722882,-0.042299,-0.0730191,-0.0907089,0.369267,0.016
 5285,-0.0919162,0.0135143,0.3271851,0.372397,0.0011214,0.0388314,0.079
 143,0.3673984,0.0078621,0.0882432,0.0068191,0.3595826,0.3703356,-0.003
 6573,-0.0458186,0.040986,0.3754221,0.0063113,-0.1233014,0.0025861,0.37
 41857,0.368043,-0.0308686,0.101233,-0.053226,0.3808105,-0.0108694,0.12
 2169,-0.0065975,0.3411565,1.8806432,0.0345104,-0.0201118,-0.035165,1.8
 840603,-0.011338,-0.0243605,-0.0097946,1.2623158,-0.4041651,-0.0104738
 ,0.0029382,0.0098143,-0.3930675,0.0055725,0.0017463,0.013528,-0.758490
 2,0.2260657,0.0049979,-0.0298285,0.002221,0.2298182,-0.0441088,0.01502
 71,0.0257714,0.2367393,0.2420176,-0.0039993,0.0523037,0.0015056,0.2252
 246,-0.0021042,-0.0293895,-0.0007119,0.2440802,0.2312835,-0.0031301,-0
 .0260529,-0.0002769,0.2286836,0.0496009,0.0150273,-0.0254902,0.2330918
 \Polar=48.6501009,-0.0565065,48.8938788,-0.0136548,0.0089769,60.752446
 6\Quadrupole=2.9721437,3.7264137,-6.6985574,-0.1732205,-1.0040681,0.30
 56095\PG=C01 [X(Fe1H11N1O5)]\NImag=0\\0.26225445,-0.15114441,0.4405091
 2,0.27805945,0.07193659,0.58054796,0.00066585,0.00012262,-0.00022747,0
 .18116912,0.00021502,-0.00237142,0.00091279,-0.15620104,0.45126053,0.0
 0049462,-0.00093098,0.00164468,-0.21650345,-0.03049527,0.64937486,-0.0
 0167154,-0.01004271,0.00022628,-0.00334552,0.01099259,0.00243443,0.392
 02155,-0.00675611,-0.00454723,-0.00036989,0.00618770,-0.00348949,-0.00
 158204,0.14031824,0.42890838,-0.00198708,-0.00220228,0.00145141,0.0004
 6778,-0.00022559,0.00242333,-0.13046858,0.28520928,0.45504961,-0.00350
 748,0.00992070,-0.00221863,-0.00283341,-0.01015651,-0.00062260,-0.0024
 8923,-0.00017475,-0.00071116,0.47688717,0.00538963,-0.00199430,0.00146
 198,-0.00540533,-0.00258071,0.00025183,-0.00022935,0.00076283,-0.00014
 921,0.13241994,0.13618699,-0.00009359,-0.00082150,0.00188253,0.0010639
 1,0.00224313,0.00225970,0.00115752,0.00047715,0.00155129,0.01999456,-0
 .20736555,0.67565422,0.00272120,0.00167963,-0.00116800,0.00291674,0.00
 049576,-0.00038181,-0.00603368,-0.00023403,-0.01152993,-0.00613340,-0.
 00082234,0.01372720,0.03417111,0.00130264,-0.00615849,0.01246549,0.000
 11874,-0.00608196,-0.01270133,-0.00114099,0.00287733,-0.00089394,-0.00
 101566,0.00270457,0.00015847,0.00004010,0.03408197,-0.00061753,0.00305
 414,-0.00146306,0.00010940,-0.00319403,-0.00200830,-0.00282483,-0.0001
 4886,-0.00105068,0.00357324,0.00047066,-0.00228129,0.00603149,-0.00451
 068,0.46764793,-0.21106439,0.17113455,-0.19283420,-0.00026295,-0.00050
 874,-0.00031891,-0.00199606,0.00154277,-0.00027073,0.00046915,0.000238
 97,-0.00012196,0.00000734,-0.00099571,0.00012674,0.21442742,0.18971864
 ,-0.20226992,0.14945509,-0.00012656,0.00049316,-0.00030277,-0.00013408
 ,0.00168084,0.00002262,0.00054848,0.00006737,-0.00019273,-0.00013935,-
 0.00039586,0.00023491,-0.18006150,0.19013188,-0.16633435,0.10891003,-0
 .17693651,0.00003826,-0.00056412,-0.00039834,-0.00112596,-0.00094506,-
 0.00123412,0.00177372,-0.00125182,-0.00043589,0.00011667,0.00076940,-0
 .00106718,0.18937342,-0.13806481,0.19411295,-0.03919545,-0.01695243,-0
 .07714064,-0.00032507,0.00021563,0.00009003,-0.00034542,0.00032369,0.0
 0034144,-0.00126184,-0.00137248,-0.00058734,-0.00119059,0.00043672,0.0
 0019085,-0.00404633,-0.01516376,-0.02510522,0.04327411,-0.03947545,-0.
 17356821,-0.22039802,0.00003705,0.00079180,0.00015191,0.00002795,0.000
 17090,0.00015294,-0.00035716,0.00060665,0.00039071,0.00003501,0.002621
 41,0.00026973,0.00686489,0.01428074,0.02406039,0.03381072,0.16272484,-
 0.10308179,-0.18556119,-0.37801170,0.00001806,0.00050011,0.00018696,0.
 00142254,0.00089502,0.00012165,-0.00106633,0.00056400,-0.00023540,-0.0
 0001563,-0.00120755,0.00054486,-0.00017917,-0.01501203,-0.01677496,0.1
 0166234,0.20518529,0.39158896,-0.00010841,-0.00044939,0.00034151,-0.14
 764114,0.15670220,0.17742281,0.00018585,0.00049966,-0.00003329,-0.0017
 5556,0.00152486,0.00074285,-0.00009013,-0.00106874,-0.00018627,-0.0000
 5803,0.00002536,-0.00003187,0.00014053,0.00010306,0.00003552,0.1477060
 0,-0.00006010,0.00052166,0.00030377,0.16887380,-0.22715779,-0.18344597
 ,0.00055743,-0.00004996,0.00010841,0.00019578,0.00116433,0.00054619,-0
 .00016360,-0.00041382,-0.00017220,0.00005821,-0.00014110,-0.00003507,0
 .00000484,-0.00007824,-0.00008097,-0.16220965,0.21548240,-0.00010422,0
 .00061183,-0.00041773,0.15229848,-0.13942715,-0.21619080,-0.00186296,0
 .00127668,-0.00045829,0.00131398,0.00077075,-0.00112707,-0.00012869,-0
 .00067334,-0.00106911,0.00005060,0.00002032,0.00030598,-0.00000901,-0.
 00014281,-0.00004905,-0.17311862,0.17085336,0.23630728,-0.00034881,0.0
 0017552,-0.00009657,-0.02132850,0.00511017,0.03281178,-0.00113080,-0.0
 0109468,0.00090282,-0.00053647,0.00051636,-0.00056754,-0.00120821,0.00
 074525,-0.00017164,0.00015761,0.00004342,-0.00000311,0.00012204,-0.000
 07491,-0.00001260,-0.00103870,-0.01152271,0.02252869,0.02265252,-0.000
 02995,0.00084491,-0.00014029,-0.01215109,-0.16127467,0.21514186,-0.000
 30428,0.00050403,-0.00053155,0.00028504,0.00019984,-0.00031108,0.00018
 640,0.00270291,-0.00016932,0.00013471,-0.00006821,0.00013918,-0.000099
 52,-0.00008217,-0.00018620,0.00426585,0.01434624,-0.02688973,0.0080750
 0,0.15053619,0.00006314,-0.00051124,0.00017926,0.05813027,0.17667091,-
 0.40714091,0.00111752,-0.00055505,-0.00039121,-0.00142194,-0.00066080,
 -0.00000940,0.00011910,0.00104131,0.00062640,-0.00004891,0.00008377,-0
 .00003461,0.00000426,0.00017901,0.00007996,-0.00136739,0.01609100,-0.0
 2029505,-0.05569302,-0.19739773,0.42419138,0.00117196,0.00052851,-0.00
 061829,0.00005071,0.00009063,-0.00018219,-0.16321582,0.06974500,0.2087
 3616,0.00084468,-0.00009067,-0.00021540,0.00246368,-0.00026769,-0.0003
 5856,-0.00002178,-0.00061913,0.00054979,-0.00048120,-0.00053429,-0.000
 12159,-0.00010673,0.00017747,0.00009039,-0.00022555,0.00040323,-0.0000
 9864,0.15421273,0.00195291,-0.00141524,-0.00076641,-0.00012286,-0.0001
 6578,0.00045577,0.04110964,-0.07865937,-0.11807694,-0.00028332,-0.0003
 6126,0.00011950,-0.00065855,-0.00083363,0.00019585,-0.00126750,-0.0003
 4691,0.00071839,-0.00086566,-0.00021987,0.00024696,0.00011777,-0.00010
 666,-0.00008412,0.00063367,-0.00034901,-0.00015204,-0.06207555,0.08839
 429,-0.00045131,-0.00094415,-0.00040576,-0.00081757,0.00165256,0.00006
 202,0.18335864,-0.15103982,-0.34723134,-0.00050444,-0.00004172,0.00021
 005,0.00115006,-0.00005368,0.00029925,0.00045242,0.00042429,0.00005941
 ,-0.00025269,0.00004396,0.00049821,0.00003534,0.00008785,-0.00019615,-
 0.00027843,-0.00006051,0.00040985,-0.19746042,0.14898818,0.35513188,-0
 .00025080,-0.00071511,-0.00000348,0.00208550,-0.00030180,0.00019942,-0
 .16843966,-0.21151270,-0.07838258,0.00055969,0.00024085,0.00021729,-0.
 00006607,0.00037179,-0.00030241,-0.00009032,-0.00021268,0.00004282,-0.
 00012486,-0.00015659,0.00008631,0.00007348,0.00038420,0.00053185,-0.00
 020578,0.00054441,-0.00056622,0.01273460,0.01883175,0.01028303,0.15837
 076,0.00006682,0.00104423,-0.00025348,-0.00191885,-0.00256074,-0.00065
 754,-0.18702499,-0.33320156,-0.15935662,0.00056126,-0.00021085,-0.0004
 0561,0.00066193,-0.00038203,0.00002648,-0.00005297,-0.00004504,0.00000
 318,-0.00017050,-0.00013357,-0.00008407,0.00035021,-0.00012877,0.00009
 407,0.00112178,0.00005734,0.00035507,-0.01001875,-0.00983023,-0.000041
 59,0.20078349,0.34128971,0.00120399,0.00134415,-0.00001619,0.00083008,
 -0.00103786,-0.00176151,-0.04622994,-0.12633817,-0.08565075,0.00042075
 ,-0.00000935,-0.00025361,-0.00065904,0.00052796,-0.00088326,-0.0001265
 8,-0.00046247,0.00052973,0.00001588,-0.00005165,-0.00020271,0.00047073
 ,-0.00000806,0.00077020,-0.00092939,0.00046299,0.00013975,-0.02023166,
 -0.03168971,-0.01061049,0.07021554,0.15656336,0.09770556,0.00094379,0.
 00001192,-0.00037078,0.00011022,-0.00051073,-0.00026613,0.00044969,0.0
 0003482,-0.00029027,-0.23201230,-0.14671003,0.20286532,-0.00045534,0.0
 0006504,0.00019904,-0.00004342,0.00032305,-0.00015903,-0.00009159,0.00
 035315,0.00026728,-0.00015593,-0.00040374,0.00006213,-0.00008544,-0.00
 016100,-0.00001484,-0.00007583,0.00000444,0.00005368,-0.00011878,-0.00
 004553,0.00003457,0.21898168,-0.00121322,-0.00163000,0.00050944,-0.000
 35754,0.00002658,-0.00007275,0.00047719,-0.00025187,0.00024374,-0.1352
 6385,-0.10847082,0.16566878,0.00102207,0.00028849,-0.00023023,0.000187
 24,-0.00011617,-0.00004122,0.00075989,0.00004183,-0.00027524,-0.000382
 65,-0.00008237,0.00022277,-0.00005470,-0.00002917,0.00007699,-0.000072
 58,0.00016478,0.00003822,-0.00007770,-0.00004620,-0.00000225,0.1398568
 7,0.10898039,-0.00082010,0.00134952,-0.00104428,-0.00115544,-0.0018599
 2,-0.00061350,-0.00064702,-0.00013344,-0.00039907,0.15700867,0.1451704
 4,-0.25148473,0.00061060,0.00002097,-0.00109444,-0.00007210,0.00002450
 ,0.00059997,0.00038796,-0.00032457,-0.00003295,-0.00014314,0.00014119,
 0.00067352,0.00013223,0.00020460,-0.00014864,0.00015987,-0.00002748,-0
 .00005498,0.00002213,0.00009410,0.00026357,-0.18888680,-0.16185296,0.2
 7143765,0.00024170,-0.00021920,0.00025050,0.00046923,0.00025145,0.0003
 6516,0.00083109,0.00000762,0.00011019,-0.17775907,0.01486964,-0.223764
 77,0.00272099,-0.00007800,0.00021080,-0.00007457,0.00015711,-0.0001641
 6,-0.00021418,0.00046553,0.00010193,0.00002550,-0.00034271,-0.00029704
 ,-0.00036162,-0.00042770,0.00010199,-0.00009359,0.00011882,0.00015816,
 -0.00008761,-0.00015491,-0.00008917,0.01538918,-0.00385108,0.02670631,
 0.16603911,-0.00050494,-0.00056697,-0.00048310,0.00101099,-0.00110923,
 0.00061729,-0.00015678,-0.00031914,-0.00009505,-0.00086686,-0.01776323
 ,0.03558929,-0.00050886,-0.00140850,-0.00018230,0.00009203,-0.00009570
 ,0.00008514,0.00090418,-0.00038138,0.00021038,-0.00069868,-0.00003905,
 -0.00042603,-0.00084207,-0.00020756,-0.00025591,0.00009393,0.00010884,
 0.00000709,-0.00006172,0.00015421,-0.00001548,0.01066537,-0.00083688,0
 .01825420,-0.01133013,0.01880239,0.00073998,-0.00139195,0.00003916,0.0
 0063257,0.00114667,-0.00024880,0.00046301,0.00001184,0.00013676,-0.182
 96464,0.05574272,-0.39614132,-0.00124210,0.00008630,0.00065908,-0.0000
 7495,-0.00002830,-0.00017587,0.00026570,0.00011458,0.00046134,-0.00024
 191,-0.00032599,-0.00001020,0.00019848,-0.00012894,0.00043342,-0.00017
 104,0.00001525,0.00008452,-0.00011311,-0.00004736,-0.00002916,-0.01795
 316,-0.00086670,-0.02063548,0.20585026,-0.05397399,0.41317270,-0.01237
 084,-0.00371815,-0.00432622,-0.01199286,-0.00588262,0.00412024,-0.0404
 7103,-0.00071480,0.00716210,-0.04709505,-0.00166587,-0.00855577,-0.033
 47486,0.00148088,-0.00634121,0.00255566,0.00578589,0.00069844,0.003450
 40,-0.00126918,0.00096865,0.00254285,0.00473379,-0.00137876,0.00322574
 ,-0.00068456,-0.00036269,-0.00662934,0.00350349,0.00392707,-0.00508267
 ,-0.00383299,-0.00583898,-0.00347828,-0.00106597,0.00769480,-0.0064586
 6,0.00257474,-0.00541751,0.17736641,0.00183374,-0.04436229,-0.00834361
 ,0.00118939,-0.04290995,0.00822793,0.00504769,-0.01497921,-0.00422793,
 0.00370614,-0.01075596,0.00367743,-0.00152809,-0.03334663,0.00387967,0
 .00237860,-0.00380207,0.00717632,-0.00267445,-0.00612400,-0.00503233,0
 .00113070,-0.00402912,-0.00729204,-0.00314042,-0.00648566,0.00511498,0
 .00281598,0.00342733,0.00109966,-0.00827441,0.00388054,0.00034055,-0.0
 0385410,0.00193664,-0.00113952,0.00052925,0.00328662,-0.00039171,0.000
 72376,0.17665393,-0.00702339,0.00851650,-0.02697543,0.00511288,-0.0085
 6302,-0.02784089,-0.01080314,-0.00652775,-0.02388650,0.00795744,0.0051
 1068,-0.02965583,-0.00660912,0.00459868,-0.43916541,0.00375894,0.00513
 181,0.00322002,-0.00015405,-0.00960080,0.00208140,-0.00418915,-0.00561
 787,0.00370710,0.00136707,0.00992055,0.00206433,0.00985455,-0.00024669
 ,0.00196648,-0.00319340,0.00338574,0.00187266,0.00601012,-0.00368174,0
 .00427926,-0.00958840,0.00084656,0.00240780,0.00906393,-0.00487040,0.5
 7206057,0.00207114,-0.00010266,0.00137506,0.00129657,-0.00041308,0.001
 29102,-0.00269381,0.00146060,0.00606814,-0.00232605,0.00113634,-0.0084
 5516,0.00421079,0.00002283,0.00053258,-0.00036073,-0.00087358,-0.00080
 669,-0.00021027,0.00008596,0.00002451,-0.00105652,-0.00027075,-0.00028
 175,0.00022630,-0.00007707,0.00003869,-0.00025563,-0.00089918,0.000001
 69,0.00079414,0.00022235,-0.00070687,0.00200056,0.00022719,0.00160838,
 -0.00043296,-0.00044370,0.00027891,-0.02936295,0.00051889,-0.00085283,
 0.66503200,-0.00158755,-0.00260862,-0.00763235,-0.00089361,-0.00195825
 ,0.00690169,0.00040805,0.00255629,0.00033483,0.00043785,0.00120068,0.0
 0050317,-0.00011392,0.00430057,-0.00003998,-0.00018413,0.00151134,0.00
 132201,0.00078706,-0.00034838,0.00013540,-0.00032574,0.00140796,-0.001
 02422,0.00045581,-0.00049343,-0.00030221,-0.00008625,-0.00001290,-0.00
 010998,0.00112468,-0.00064338,-0.00103387,0.00013260,-0.00050160,-0.00
 010725,0.00001492,-0.00000438,-0.00002758,0.00007623,-0.02985268,0.000
 98922,-0.00168303,0.66378935,-0.00049517,-0.00349425,-0.00304861,0.000
 48780,0.00263124,-0.00189407,0.00368636,-0.00074016,-0.00267267,-0.002
 96289,0.00043808,-0.00223000,0.00002076,0.00033797,-0.01108209,-0.0002
 8621,0.00050602,-0.00068012,0.00067602,0.00022857,0.00021609,0.0000685
 4,-0.00056657,-0.00058751,-0.00025470,-0.00023682,0.00035300,-0.000261
 17,0.00087076,0.00005310,-0.00043785,-0.00039203,-0.00066484,0.0004670
 4,0.00005761,-0.00076352,0.00023105,-0.00027871,0.00033973,-0.00042648
 ,0.00002181,-0.04039455,-0.01058134,0.02162902,0.37393843,-0.00095627,
 -0.00008027,-0.00047431,-0.00004574,0.00021804,-0.00056962,-0.00012239
 ,0.00040385,0.00046666,-0.00067942,-0.00044510,0.00112251,-0.00012337,
 -0.00016940,-0.00117457,0.00015284,0.00067533,0.00109153,0.00026015,0.
 00018921,-0.00003113,0.00017363,-0.00028292,0.00022614,0.00001797,-0.0
 0003425,-0.00000696,-0.00005588,-0.00008282,0.00008531,0.00010992,-0.0
 0003389,-0.00024865,-0.00090002,0.00060426,-0.00161755,-0.00012065,-0.
 00001413,-0.00012571,0.00205120,0.00123589,0.00195612,-0.14472602,-0.1
 3754379,0.05895650,0.15221124,-0.00027707,-0.00121512,0.00102052,-0.00
 004541,0.00023296,0.00015163,0.00030433,-0.00045774,-0.00038935,-0.000
 05492,-0.00037862,-0.00042564,-0.00011814,-0.00020509,-0.00170192,0.00
 090633,-0.00021487,-0.00137131,-0.00002049,-0.00013180,-0.00018058,-0.
 00002464,0.00001335,-0.00014106,-0.00004911,-0.00008148,-0.00000287,-0
 .00004886,0.00017621,-0.00003269,-0.00025441,-0.00005689,0.00018712,0.
 00038689,0.00064297,0.00050508,0.00013425,0.00005564,0.00008318,0.0007
 2733,0.00246059,0.00367992,-0.13991988,-0.29124928,0.09611353,0.152653
 76,0.31123678,-0.00015775,0.00015828,0.00275130,-0.00009410,0.00016315
 ,-0.00082645,0.00008444,-0.00074890,-0.00056092,0.00037154,-0.00117716
 ,0.00168931,-0.00039979,-0.00057871,-0.00293600,0.00099415,-0.00109434
 ,-0.00071155,-0.00053899,-0.00013416,-0.00025815,0.00014546,-0.0000674
 6,-0.00008474,-0.00010052,0.00010843,-0.00000421,0.00011821,0.00016928
 ,-0.00007083,-0.00021818,0.00007729,0.00007974,-0.00161378,0.00069026,
 -0.00055874,-0.00005034,0.00000306,-0.00028022,0.00715198,0.01168528,-
 0.00172382,0.08091255,0.13072510,-0.09239417,-0.06838723,-0.11057503,0
 .08696991,-0.00040445,0.00015603,-0.00000865,-0.00035787,-0.00021931,0
 .00002356,-0.00135248,0.00007803,-0.00106517,0.00035266,-0.00001687,0.
 00029029,-0.00034307,-0.00001802,0.00210976,0.00046953,-0.00006857,-0.
 00008726,0.00002179,-0.00011765,-0.00003238,0.00004973,0.00022460,-0.0
 0007982,0.00012810,0.00012185,-0.00002122,-0.00021356,0.00008056,0.000
 17836,-0.00011194,-0.00074129,0.00160661,-0.00017158,-0.00006980,0.000
 02727,-0.00007607,0.00004902,0.00000874,0.00368976,-0.00014393,-0.0044
 0805,-0.37288212,0.02201382,-0.11388975,-0.01694070,0.00379329,-0.0083
 5828,0.40185883,0.00056567,-0.00043643,0.00048081,-0.00044273,-0.00035
 999,-0.00049318,0.00016823,-0.00116637,-0.00018586,0.00000782,0.000060
 14,0.00004311,-0.00000508,-0.00003133,0.00001869,-0.00043278,-0.000565
 78,-0.00104445,0.00002833,-0.00011082,-0.00010419,0.00049783,0.0000976
 1,0.00025937,-0.00008834,-0.00000337,0.00009479,-0.00011693,0.00010155
 ,-0.00006656,-0.00068033,0.00045756,0.00115242,0.00018791,-0.00019938,
 0.00012415,0.00002466,0.00016356,0.00001006,0.00047217,0.00129081,0.00
 041487,0.02440702,-0.06309576,0.00739867,-0.03347388,0.00371647,-0.012
 89133,-0.02382828,0.06086740,0.00100803,0.00024580,0.00067515,0.000541
 26,-0.00031648,0.00042250,-0.00016928,0.00083614,0.00299930,-0.0002552
 2,0.00015091,-0.00109221,0.00067993,-0.00003717,-0.00282181,-0.0004008
 4,-0.00090285,-0.00025991,-0.00002172,-0.00001399,-0.00019356,-0.00020
 964,0.00003841,0.00001112,0.00006127,0.00001835,-0.00011652,0.00019650
 ,-0.00080739,-0.00008932,0.00128028,0.00084860,-0.00115542,0.00022914,
 0.00007954,-0.00011343,-0.00011824,-0.00010574,0.00001187,-0.01370532,
 0.00111511,-0.00225344,-0.15455671,0.00933547,-0.09313572,0.01523698,-
 0.00049045,0.00373350,0.13102115,-0.00851654,0.08812527,-0.00019165,-0
 .00030515,-0.00076555,-0.00063088,-0.00009766,-0.00040836,-0.00018073,
 -0.00011491,0.00048351,-0.00072405,0.00042146,0.00118009,-0.00009313,0
 .00017022,-0.00110688,-0.00022099,0.00012194,0.00013300,0.00021778,0.0
 0001269,-0.00004650,0.00111358,0.00004605,0.00015862,-0.00006043,-0.00
 004706,0.00002685,-0.00010342,-0.00009763,0.00008109,-0.00014960,0.000
 22682,0.00026212,-0.00028660,-0.00072561,-0.00101608,-0.00003782,0.000
 03761,-0.00013352,0.00153451,-0.00149465,0.00174047,-0.12132442,0.1169
 6699,0.06500150,0.00969350,-0.01809327,-0.00985938,-0.01371656,0.03270
 872,0.01918242,0.12516091,0.00000373,0.00022433,-0.00015933,0.00012473
 ,-0.00078504,-0.00121807,-0.00037815,-0.00033867,0.00026251,0.00009002
 ,-0.00043765,0.00010519,0.00017104,-0.00031991,0.00219939,-0.00003496,
 -0.00010369,0.00013382,0.00004822,-0.00005974,-0.00001281,-0.00005799,
 -0.00080666,0.00199135,-0.00001006,-0.00011673,0.00013001,0.00007594,-
 0.00007213,0.00004891,-0.00003372,0.00035570,0.00007034,-0.00033694,0.
 00008277,-0.00044361,-0.00016952,0.00016077,-0.00002810,-0.00124414,0.
 00371111,-0.00348626,0.11660174,-0.28399755,-0.12452473,0.01618010,-0.
 02454410,-0.01651305,-0.00129349,-0.00078590,-0.00147773,-0.12973655,0
 .30783308,-0.00040294,-0.00026930,-0.00085219,-0.00093270,-0.00023712,
 0.00254950,0.00018097,0.00042304,-0.00019781,0.00031396,0.00052353,0.0
 0169966,-0.00032170,0.00064983,-0.00285486,-0.00002171,0.00015697,-0.0
 0011903,0.00017520,-0.00011109,-0.00002094,0.00025850,0.00215000,-0.00
 128948,0.00010516,0.00005621,-0.00033679,0.00001350,0.00007086,-0.0001
 1590,0.00033856,-0.00020957,-0.00013327,-0.00063355,-0.00056427,-0.000
 31021,-0.00001424,0.00020331,-0.00022533,0.00556574,-0.01104121,-0.001
 76375,0.08410983,-0.16159846,-0.12535249,-0.00650600,0.01356992,0.0051
 8604,-0.00731516,0.01330518,0.00525264,-0.07491341,0.14292217,0.118884
 19\\0.00000552,0.00000302,-0.00000147,0.00000064,0.00000735,0.00000169
 ,-0.00000239,-0.00000195,-0.00000696,-0.00000565,0.00000561,0.00000183
 ,-0.00000238,-0.00000034,-0.00000250,-0.00000200,0.00000116,-0.0000002
 4,-0.00000188,0.00000134,-0.00000068,-0.00000291,-0.00000325,0.0000010
 8,0.00000067,-0.00000057,0.00000114,-0.00000112,-0.00000117,-0.0000012
 6,-0.00000432,0.00000150,0.00000091,0.00000110,-0.00000133,0.00000161,
 -0.00000049,0.00000078,0.00000100,0.00000861,-0.00000865,0.00000775,0.
 00000372,-0.00000401,0.00000288,0.00000078,-0.00000080,-0.00000351,0.0
 0000178,-0.00000013,-0.00000017,0.00000031,0.00000144,-0.00000309\\\@


 IT'S WHAT YOU LEARN AFTER YOU KNOW IT ALL
 THAT COUNTS.
 Job cpu time:       0 days  0 hours 19 minutes 56.0 seconds.
 Elapsed time:       0 days  0 hours  1 minutes 16.1 seconds.
 File lengths (MBytes):  RWF=    125 Int=      0 D2E=      0 Chk=      5 Scr=      1
 Normal termination of Gaussian 16 at Mon Oct 15 20:18:57 2018.
