 Entering Gaussian System, Link 0=g09
 Initial command:
 /share/apps/g09.d01/g09/l1.exe "/state/partition1/5447/Gau-18196.inp" -scrdir="/state/partition1/5447/"
 Entering Link 1 = /share/apps/g09.d01/g09/l1.exe PID=     18197.
  
 Copyright (c) 1988,1990,1992,1993,1995,1998,2003,2009,2013,
            Gaussian, Inc.  All Rights Reserved.
  
 This is part of the Gaussian(R) 09 program.  It is based on
 the Gaussian(R) 03 system (copyright 2003, Gaussian, Inc.),
 the Gaussian(R) 98 system (copyright 1998, Gaussian, Inc.),
 the Gaussian(R) 94 system (copyright 1995, Gaussian, Inc.),
 the Gaussian 92(TM) system (copyright 1992, Gaussian, Inc.),
 the Gaussian 90(TM) system (copyright 1990, Gaussian, Inc.),
 the Gaussian 88(TM) system (copyright 1988, Gaussian, Inc.),
 the Gaussian 86(TM) system (copyright 1986, Carnegie Mellon
 University), and the Gaussian 82(TM) system (copyright 1983,
 Carnegie Mellon University). Gaussian is a federally registered
 trademark of Gaussian, Inc.
  
 This software contains proprietary and confidential information,
 including trade secrets, belonging to Gaussian, Inc.
  
 This software is provided under written license and may be
 used, copied, transmitted, or stored only in accord with that
 written license.
  
 The following legend is applicable only to US Government
 contracts under FAR:
  
                    RESTRICTED RIGHTS LEGEND
  
 Use, reproduction and disclosure by the US Government is
 subject to restrictions as set forth in subparagraphs (a)
 and (c) of the Commercial Computer Software - Restricted
 Rights clause in FAR 52.227-19.
  
 Gaussian, Inc.
 340 Quinnipiac St., Bldg. 40, Wallingford CT 06492
  
  
 ---------------------------------------------------------------
 Warning -- This program may not be used in any manner that
 competes with the business of Gaussian, Inc. or will provide
 assistance to any competitor of Gaussian, Inc.  The licensee
 of this program is prohibited from giving any competitor of
 Gaussian, Inc. access to this program.  By using this program,
 the user acknowledges that Gaussian, Inc. is engaged in the
 business of creating and licensing software in the field of
 computational chemistry and represents and warrants to the
 licensee that it is not a competitor of Gaussian, Inc. and that
 it will not use this program in any manner prohibited above.
 ---------------------------------------------------------------
  

 Cite this work as:
 Gaussian 09, Revision D.01,
 M. J. Frisch, G. W. Trucks, H. B. Schlegel, G. E. Scuseria, 
 M. A. Robb, J. R. Cheeseman, G. Scalmani, V. Barone, B. Mennucci, 
 G. A. Petersson, H. Nakatsuji, M. Caricato, X. Li, H. P. Hratchian, 
 A. F. Izmaylov, J. Bloino, G. Zheng, J. L. Sonnenberg, M. Hada, 
 M. Ehara, K. Toyota, R. Fukuda, J. Hasegawa, M. Ishida, T. Nakajima, 
 Y. Honda, O. Kitao, H. Nakai, T. Vreven, J. A. Montgomery, Jr., 
 J. E. Peralta, F. Ogliaro, M. Bearpark, J. J. Heyd, E. Brothers, 
 K. N. Kudin, V. N. Staroverov, T. Keith, R. Kobayashi, J. Normand, 
 K. Raghavachari, A. Rendell, J. C. Burant, S. S. Iyengar, J. Tomasi, 
 M. Cossi, N. Rega, J. M. Millam, M. Klene, J. E. Knox, J. B. Cross, 
 V. Bakken, C. Adamo, J. Jaramillo, R. Gomperts, R. E. Stratmann, 
 O. Yazyev, A. J. Austin, R. Cammi, C. Pomelli, J. W. Ochterski, 
 R. L. Martin, K. Morokuma, V. G. Zakrzewski, G. A. Voth, 
 P. Salvador, J. J. Dannenberg, S. Dapprich, A. D. Daniels, 
 O. Farkas, J. B. Foresman, J. V. Ortiz, J. Cioslowski, 
 and D. J. Fox, Gaussian, Inc., Wallingford CT, 2013.
 
 ******************************************
 Gaussian 09:  EM64L-G09RevD.01 24-Apr-2013
                25-Dec-2018 
 ******************************************
 %chk=wts222.chk
 %mem=24GB
 %nprocs=12
 Will use up to   12 processors via shared memory.
 ----------------------------------------------------------------------
 #p opt=(calcfc,ts,noeigen,maxcycle=1024,maxstep=3) guess=check geom=ch
 eck freq=noraman uwb97xd/gen 6d int=ultrafine pseudo scf=tight
 ----------------------------------------------------------------------
 1/5=1,6=1024,8=3,10=4,11=1,14=-1,18=20,26=4,29=2,38=1/1,3;
 2/9=110,12=2,40=1/2;
 3/5=7,8=2,11=2,14=-4,16=1,17=8,25=1,30=1,71=2,74=-58,75=-5,116=2,140=1/1,2,3;
 4/5=1/1;
 5/5=2,32=2,38=6/2;
 8/6=4,10=90,11=11/1;
 11/6=1,8=1,9=11,15=111,16=1/1,2,10;
 10/6=1,13=1/2;
 6/7=2,8=2,9=2,10=2,28=1/1;
 7/10=1,18=20,25=1/1,2,3,16;
 1/5=1,6=1024,8=3,10=4,11=1,14=-1,18=20,26=4/3(2);
 2/9=110/2;
 99//99;
 2/9=110/2;
 3/5=7,6=1,8=2,11=2,14=-2,16=1,17=8,25=1,30=1,71=1,74=-58,75=-5,82=7,116=2/1,2,3;
 4/5=5,16=3,69=1/1;
 5/5=2,32=2,38=5/2;
 7//1,2,3,16;
 1/5=1,6=1024,8=3,11=1,14=-1,18=20,26=4/3(-5);
 2/9=110/2;
 6/7=2,8=2,9=2,10=2,19=2,28=1/1;
 99/9=1/99;
 Leave Link    1 at Tue Dec 25 14:05:51 2018, MaxMem=  3221225472 cpu:         0.9
 (Enter /share/apps/g09.d01/g09/l101.exe)
 -------------------
 Title Card Required
 -------------------
 Structure from the checkpoint file:  "wts222.chk"
 Charge =  2 Multiplicity = 5
 Redundant internal coordinates found in file.
 O,0,-0.5585448323,-1.4108601489,-1.5385367277
 O,0,-0.4472724437,1.3950439986,1.5503524057
 O,0,-0.525414617,-1.5957299354,1.3184540106
 O,0,-0.4063008577,1.5007493266,-1.4749798099
 O,0,1.2387380392,-0.0130714975,0.0307085998
 H,0,-0.869264587,-2.3014720726,-1.3232531328
 H,0,0.1879364203,-1.5179821278,-2.1452486413
 H,0,-1.0827676292,2.1080837455,1.6934240117
 H,0,0.3899080318,1.6631076056,1.954659011
 H,0,0.3132667773,-2.0021703418,1.580689905
 H,0,-1.1096095932,-1.641273454,2.0869998499
 H,0,0.4241913272,1.9424815899,-1.7009162193
 H,0,-0.9776325961,1.5405497694,-2.2529760711
 Fe,0,-0.384929322,0.0224047183,-0.005365394
 N,0,-2.5597791814,0.1185877601,-0.0616448812
 H,0,-2.9310373513,-0.4553238966,-0.820504673
 H,0,-3.0432004156,-0.1994737161,0.7788069302
 H,0,-2.9190274319,1.0586309788,-0.2342285268
 C,0,4.1568306091,-0.0420916122,0.1124339874
 H,0,4.5286401902,0.1926935408,-0.8851948021
 H,0,3.0368251096,-0.0398421209,0.0705922405
 H,0,4.4784186341,-1.0358139317,0.4248956469
 H,0,4.4692277196,0.713608822,0.8334232805
 Recover connectivity data from disk.
 NAtoms=     23 NQM=       23 NQMF=       0 NMMI=      0 NMMIF=      0
                NMic=       0 NMicF=      0.
                    Isotopes and Nuclear Properties:
 (Nuclear quadrupole moments (NQMom) in fm**2, nuclear magnetic moments (NMagM)
  in nuclear magnetons)

  Atom         1           2           3           4           5           6           7           8           9          10
 IAtWgt=          16          16          16          16          16           1           1           1           1           1
 AtmWgt=  15.9949146  15.9949146  15.9949146  15.9949146  15.9949146   1.0078250   1.0078250   1.0078250   1.0078250   1.0078250
 NucSpn=           0           0           0           0           0           1           1           1           1           1
 AtZEff=  -5.6000000  -5.6000000  -5.6000000  -5.6000000  -5.6000000  -1.0000000  -1.0000000  -1.0000000  -1.0000000  -1.0000000
 NQMom=    0.0000000   0.0000000   0.0000000   0.0000000   0.0000000   0.0000000   0.0000000   0.0000000   0.0000000   0.0000000
 NMagM=    0.0000000   0.0000000   0.0000000   0.0000000   0.0000000   2.7928460   2.7928460   2.7928460   2.7928460   2.7928460
 AtZNuc=   8.0000000   8.0000000   8.0000000   8.0000000   8.0000000   1.0000000   1.0000000   1.0000000   1.0000000   1.0000000

  Atom        11          12          13          14          15          16          17          18          19          20
 IAtWgt=           1           1           1          56          14           1           1           1          12           1
 AtmWgt=   1.0078250   1.0078250   1.0078250  55.9349393  14.0030740   1.0078250   1.0078250   1.0078250  12.0000000   1.0078250
 NucSpn=           1           1           1           0           2           1           1           1           0           1
 AtZEff=  -1.0000000  -1.0000000  -1.0000000 -13.9100000  -4.5500000  -1.0000000  -1.0000000  -1.0000000  -3.6000000  -1.0000000
 NQMom=    0.0000000   0.0000000   0.0000000   0.0000000   2.0440000   0.0000000   0.0000000   0.0000000   0.0000000   0.0000000
 NMagM=    2.7928460   2.7928460   2.7928460   0.0000000   0.4037610   2.7928460   2.7928460   2.7928460   0.0000000   2.7928460
 AtZNuc=   1.0000000   1.0000000   1.0000000  26.0000000   7.0000000   1.0000000   1.0000000   1.0000000   6.0000000   1.0000000

  Atom        21          22          23
 IAtWgt=           1           1           1
 AtmWgt=   1.0078250   1.0078250   1.0078250
 NucSpn=           1           1           1
 AtZEff=  -1.0000000  -1.0000000  -1.0000000
 NQMom=    0.0000000   0.0000000   0.0000000
 NMagM=    2.7928460   2.7928460   2.7928460
 AtZNuc=   1.0000000   1.0000000   1.0000000
 Leave Link  101 at Tue Dec 25 14:05:52 2018, MaxMem=  3221225472 cpu:         5.4
 (Enter /share/apps/g09.d01/g09/l103.exe)

 GradGradGradGradGradGradGradGradGradGradGradGradGradGradGradGradGradGrad
 Berny optimization.
 Initialization pass.
                           ----------------------------
                           !    Initial Parameters    !
                           ! (Angstroms and Degrees)  !
 --------------------------                            --------------------------
 ! Name  Definition              Value          Derivative Info.                !
 --------------------------------------------------------------------------------
 ! R1    R(1,6)                  0.9675         calculate D2E/DX2 analytically  !
 ! R2    R(1,7)                  0.9679         calculate D2E/DX2 analytically  !
 ! R3    R(1,14)                 2.1059         calculate D2E/DX2 analytically  !
 ! R4    R(2,8)                  0.9658         calculate D2E/DX2 analytically  !
 ! R5    R(2,9)                  0.9676         calculate D2E/DX2 analytically  !
 ! R6    R(2,14)                 2.0756         calculate D2E/DX2 analytically  !
 ! R7    R(3,10)                 0.9682         calculate D2E/DX2 analytically  !
 ! R8    R(3,11)                 0.9664         calculate D2E/DX2 analytically  !
 ! R9    R(3,14)                 2.0954         calculate D2E/DX2 analytically  !
 ! R10   R(4,12)                 0.9674         calculate D2E/DX2 analytically  !
 ! R11   R(4,13)                 0.9661         calculate D2E/DX2 analytically  !
 ! R12   R(4,14)                 2.0846         calculate D2E/DX2 analytically  !
 ! R13   R(5,14)                 1.6245         calculate D2E/DX2 analytically  !
 ! R14   R(5,21)                 1.7987         calculate D2E/DX2 analytically  !
 ! R15   R(14,15)                2.1777         calculate D2E/DX2 analytically  !
 ! R16   R(15,16)                1.0213         calculate D2E/DX2 analytically  !
 ! R17   R(15,17)                1.0204         calculate D2E/DX2 analytically  !
 ! R18   R(15,18)                1.021          calculate D2E/DX2 analytically  !
 ! R19   R(19,20)                1.0902         calculate D2E/DX2 analytically  !
 ! R20   R(19,21)                1.1208         calculate D2E/DX2 analytically  !
 ! R21   R(19,22)                1.0902         calculate D2E/DX2 analytically  !
 ! R22   R(19,23)                1.0902         calculate D2E/DX2 analytically  !
 ! A1    A(6,1,7)              106.5761         calculate D2E/DX2 analytically  !
 ! A2    A(6,1,14)             119.4042         calculate D2E/DX2 analytically  !
 ! A3    A(7,1,14)             117.9107         calculate D2E/DX2 analytically  !
 ! A4    A(8,2,9)              107.6311         calculate D2E/DX2 analytically  !
 ! A5    A(8,2,14)             128.246          calculate D2E/DX2 analytically  !
 ! A6    A(9,2,14)             118.0613         calculate D2E/DX2 analytically  !
 ! A7    A(10,3,11)            106.7655         calculate D2E/DX2 analytically  !
 ! A8    A(10,3,14)            115.9276         calculate D2E/DX2 analytically  !
 ! A9    A(11,3,14)            125.4034         calculate D2E/DX2 analytically  !
 ! A10   A(12,4,13)            107.5059         calculate D2E/DX2 analytically  !
 ! A11   A(12,4,14)            118.6628         calculate D2E/DX2 analytically  !
 ! A12   A(13,4,14)            127.0859         calculate D2E/DX2 analytically  !
 ! A13   A(1,14,3)              85.92           calculate D2E/DX2 analytically  !
 ! A14   A(1,14,4)              88.1984         calculate D2E/DX2 analytically  !
 ! A15   A(1,14,5)              94.8015         calculate D2E/DX2 analytically  !
 ! A16   A(1,14,15)             85.9235         calculate D2E/DX2 analytically  !
 ! A17   A(2,14,3)              92.0143         calculate D2E/DX2 analytically  !
 ! A18   A(2,14,4)              93.3884         calculate D2E/DX2 analytically  !
 ! A19   A(2,14,5)              91.5941         calculate D2E/DX2 analytically  !
 ! A20   A(2,14,15)             87.7171         calculate D2E/DX2 analytically  !
 ! A21   A(3,14,5)              92.0699         calculate D2E/DX2 analytically  !
 ! A22   A(3,14,15)             89.0533         calculate D2E/DX2 analytically  !
 ! A23   A(4,14,5)              92.3721         calculate D2E/DX2 analytically  !
 ! A24   A(4,14,15)             86.5729         calculate D2E/DX2 analytically  !
 ! A25   A(14,15,16)           110.9417         calculate D2E/DX2 analytically  !
 ! A26   A(14,15,17)           115.9816         calculate D2E/DX2 analytically  !
 ! A27   A(14,15,18)           113.3543         calculate D2E/DX2 analytically  !
 ! A28   A(16,15,17)           105.3443         calculate D2E/DX2 analytically  !
 ! A29   A(16,15,18)           105.2997         calculate D2E/DX2 analytically  !
 ! A30   A(17,15,18)           105.0407         calculate D2E/DX2 analytically  !
 ! A31   A(20,19,21)           107.8305         calculate D2E/DX2 analytically  !
 ! A32   A(20,19,22)           110.9748         calculate D2E/DX2 analytically  !
 ! A33   A(20,19,23)           110.9874         calculate D2E/DX2 analytically  !
 ! A34   A(21,19,22)           107.8968         calculate D2E/DX2 analytically  !
 ! A35   A(21,19,23)           108.0383         calculate D2E/DX2 analytically  !
 ! A36   A(22,19,23)           110.9631         calculate D2E/DX2 analytically  !
 ! A37   L(14,5,21,7,-1)       180.2287         calculate D2E/DX2 analytically  !
 ! A38   L(1,14,2,3,-1)        177.9342         calculate D2E/DX2 analytically  !
 ! A39   L(3,14,4,1,-1)        174.1184         calculate D2E/DX2 analytically  !
 ! A40   L(5,14,15,1,-1)       180.7251         calculate D2E/DX2 analytically  !
 ! A41   L(5,21,19,9,-1)       178.8602         calculate D2E/DX2 analytically  !
 ! A42   L(14,5,21,7,-2)       179.6477         calculate D2E/DX2 analytically  !
 ! A43   L(1,14,2,3,-2)        186.3377         calculate D2E/DX2 analytically  !
 ! A44   L(3,14,4,1,-2)        176.0309         calculate D2E/DX2 analytically  !
 ! A45   L(5,14,15,1,-2)       181.0787         calculate D2E/DX2 analytically  !
 ! A46   L(5,21,19,9,-2)       179.9929         calculate D2E/DX2 analytically  !
 ! D1    D(6,1,14,3)            15.333          calculate D2E/DX2 analytically  !
 ! D2    D(6,1,14,4)          -160.6979         calculate D2E/DX2 analytically  !
 ! D3    D(6,1,14,5)           107.072          calculate D2E/DX2 analytically  !
 ! D4    D(6,1,14,15)          -74.0068         calculate D2E/DX2 analytically  !
 ! D5    D(7,1,14,3)          -116.6654         calculate D2E/DX2 analytically  !
 ! D6    D(7,1,14,4)            67.3037         calculate D2E/DX2 analytically  !
 ! D7    D(7,1,14,5)           -24.9264         calculate D2E/DX2 analytically  !
 ! D8    D(7,1,14,15)          153.9949         calculate D2E/DX2 analytically  !
 ! D9    D(8,2,14,3)          -121.5498         calculate D2E/DX2 analytically  !
 ! D10   D(8,2,14,4)            53.8505         calculate D2E/DX2 analytically  !
 ! D11   D(8,2,14,5)           146.3222         calculate D2E/DX2 analytically  !
 ! D12   D(8,2,14,15)          -32.5782         calculate D2E/DX2 analytically  !
 ! D13   D(9,2,14,3)            89.4432         calculate D2E/DX2 analytically  !
 ! D14   D(9,2,14,4)           -95.1566         calculate D2E/DX2 analytically  !
 ! D15   D(9,2,14,5)            -2.6849         calculate D2E/DX2 analytically  !
 ! D16   D(9,2,14,15)          178.4148         calculate D2E/DX2 analytically  !
 ! D17   D(10,3,14,1)           90.8945         calculate D2E/DX2 analytically  !
 ! D18   D(10,3,14,2)          -95.4433         calculate D2E/DX2 analytically  !
 ! D19   D(10,3,14,5)           -3.7742         calculate D2E/DX2 analytically  !
 ! D20   D(10,3,14,15)         176.8747         calculate D2E/DX2 analytically  !
 ! D21   D(11,3,14,1)         -131.4555         calculate D2E/DX2 analytically  !
 ! D22   D(11,3,14,2)           42.2068         calculate D2E/DX2 analytically  !
 ! D23   D(11,3,14,5)          133.8758         calculate D2E/DX2 analytically  !
 ! D24   D(11,3,14,15)         -45.4752         calculate D2E/DX2 analytically  !
 ! D25   D(12,4,14,1)         -104.9726         calculate D2E/DX2 analytically  !
 ! D26   D(12,4,14,2)           81.4994         calculate D2E/DX2 analytically  !
 ! D27   D(12,4,14,5)          -10.2395         calculate D2E/DX2 analytically  !
 ! D28   D(12,4,14,15)         169.005          calculate D2E/DX2 analytically  !
 ! D29   D(13,4,14,1)           42.4796         calculate D2E/DX2 analytically  !
 ! D30   D(13,4,14,2)         -131.0484         calculate D2E/DX2 analytically  !
 ! D31   D(13,4,14,5)          137.2127         calculate D2E/DX2 analytically  !
 ! D32   D(13,4,14,15)         -43.5428         calculate D2E/DX2 analytically  !
 ! D33   D(1,14,19,20)          56.6106         calculate D2E/DX2 analytically  !
 ! D34   D(1,14,19,22)         -63.8661         calculate D2E/DX2 analytically  !
 ! D35   D(1,14,19,23)         176.3684         calculate D2E/DX2 analytically  !
 ! D36   D(2,14,19,20)        -125.2183         calculate D2E/DX2 analytically  !
 ! D37   D(2,14,19,22)         114.3049         calculate D2E/DX2 analytically  !
 ! D38   D(2,14,19,23)          -5.4606         calculate D2E/DX2 analytically  !
 ! D39   D(3,14,19,20)         142.72           calculate D2E/DX2 analytically  !
 ! D40   D(3,14,19,22)          22.2432         calculate D2E/DX2 analytically  !
 ! D41   D(3,14,19,23)         -97.5223         calculate D2E/DX2 analytically  !
 ! D42   D(4,14,19,20)         -31.7825         calculate D2E/DX2 analytically  !
 ! D43   D(4,14,19,22)        -152.2592         calculate D2E/DX2 analytically  !
 ! D44   D(4,14,19,23)          87.9753         calculate D2E/DX2 analytically  !
 ! D45   D(1,14,15,16)          -5.0672         calculate D2E/DX2 analytically  !
 ! D46   D(1,14,15,17)         115.0448         calculate D2E/DX2 analytically  !
 ! D47   D(1,14,15,18)        -123.2957         calculate D2E/DX2 analytically  !
 ! D48   D(2,14,15,16)         176.9022         calculate D2E/DX2 analytically  !
 ! D49   D(2,14,15,17)         -62.9858         calculate D2E/DX2 analytically  !
 ! D50   D(2,14,15,18)          58.6737         calculate D2E/DX2 analytically  !
 ! D51   D(3,14,15,16)         -91.0439         calculate D2E/DX2 analytically  !
 ! D52   D(3,14,15,17)          29.0681         calculate D2E/DX2 analytically  !
 ! D53   D(3,14,15,18)         150.7276         calculate D2E/DX2 analytically  !
 ! D54   D(4,14,15,16)          83.368          calculate D2E/DX2 analytically  !
 ! D55   D(4,14,15,17)        -156.52           calculate D2E/DX2 analytically  !
 ! D56   D(4,14,15,18)         -34.8605         calculate D2E/DX2 analytically  !
 ! D57   D(16,15,19,20)         51.4679         calculate D2E/DX2 analytically  !
 ! D58   D(16,15,19,22)        -69.2429         calculate D2E/DX2 analytically  !
 ! D59   D(16,15,19,23)        170.932          calculate D2E/DX2 analytically  !
 ! D60   D(17,15,19,20)        172.4683         calculate D2E/DX2 analytically  !
 ! D61   D(17,15,19,22)         51.7575         calculate D2E/DX2 analytically  !
 ! D62   D(17,15,19,23)        -68.0676         calculate D2E/DX2 analytically  !
 ! D63   D(18,15,19,20)        -66.4902         calculate D2E/DX2 analytically  !
 ! D64   D(18,15,19,22)        172.799          calculate D2E/DX2 analytically  !
 ! D65   D(18,15,19,23)         52.9739         calculate D2E/DX2 analytically  !
 --------------------------------------------------------------------------------
 Trust Radius=3.00D-02 FncErr=1.00D-07 GrdErr=1.00D-06
 Number of steps in this run=    138 maximum allowed number of steps=    138.
 Search for a saddle point of order  1.
 GradGradGradGradGradGradGradGradGradGradGradGradGradGradGradGradGradGrad

 Leave Link  103 at Tue Dec 25 14:05:52 2018, MaxMem=  3221225472 cpu:         0.2
 (Enter /share/apps/g09.d01/g09/l202.exe)
                          Input orientation:                          
 ---------------------------------------------------------------------
 Center     Atomic      Atomic             Coordinates (Angstroms)
 Number     Number       Type             X           Y           Z
 ---------------------------------------------------------------------
      1          8           0       -0.558545   -1.410860   -1.538537
      2          8           0       -0.447272    1.395044    1.550352
      3          8           0       -0.525415   -1.595730    1.318454
      4          8           0       -0.406301    1.500749   -1.474980
      5          8           0        1.238738   -0.013071    0.030709
      6          1           0       -0.869265   -2.301472   -1.323253
      7          1           0        0.187936   -1.517982   -2.145249
      8          1           0       -1.082768    2.108084    1.693424
      9          1           0        0.389908    1.663108    1.954659
     10          1           0        0.313267   -2.002170    1.580690
     11          1           0       -1.109610   -1.641273    2.087000
     12          1           0        0.424191    1.942482   -1.700916
     13          1           0       -0.977633    1.540550   -2.252976
     14         26           0       -0.384929    0.022405   -0.005365
     15          7           0       -2.559779    0.118588   -0.061645
     16          1           0       -2.931037   -0.455324   -0.820505
     17          1           0       -3.043200   -0.199474    0.778807
     18          1           0       -2.919027    1.058631   -0.234229
     19          6           0        4.156831   -0.042092    0.112434
     20          1           0        4.528640    0.192694   -0.885195
     21          1           0        3.036825   -0.039842    0.070592
     22          1           0        4.478419   -1.035814    0.424896
     23          1           0        4.469228    0.713609    0.833423
 ---------------------------------------------------------------------
                    Distance matrix (angstroms):
                    1          2          3          4          5
     1  O    0.000000
     2  O    4.174532   0.000000
     3  O    2.863157   3.000769   0.000000
     4  O    2.916280   3.027456   4.172007   0.000000
     5  O    2.765243   2.671093   2.697282   2.695349   0.000000
     6  H    0.967514   4.701055   2.755888   3.833307   3.393179
     7  H    0.967889   4.748334   3.537252   3.148828   2.846705
     8  H    4.806594   0.965789   3.764237   3.296247   3.557149
     9  H    4.748816   0.967571   3.444212   3.524590   2.689177
    10  H    3.292306   3.481437   0.968167   4.703758   2.686160
    11  H    3.674409   3.153713   0.966447   4.801526   3.520527
    12  H    3.498148   3.410262   4.747345   0.967415   2.736092
    13  H    3.065433   3.842885   4.774501   0.966065   3.541363
    14  Fe   2.105945   2.075640   2.095374   2.084641   1.624455
    15  N    2.919822   2.947976   2.997031   2.923244   3.801920
    16  H    2.656566   3.900502   3.415068   3.260192   4.278689
    17  H    3.607084   3.142708   2.929163   3.863101   4.350792
    18  H    3.656704   3.067161   3.896901   2.837028   4.301831
    19  C    5.180154   5.032965   5.078553   5.071726   2.919381
    20  H    5.373797   5.668972   5.796378   5.139309   3.421210
    21  H    4.170812   4.048151   4.082585   4.076436   1.798729
    22  H    5.419108   5.606974   5.113736   5.822728   3.420075
    23  H    5.951307   5.015009   5.524016   5.451522   3.407122
                    6          7          8          9         10
     6  H    0.000000
     7  H    1.551518   0.000000
     8  H    5.346972   5.431248   0.000000
     9  H    5.296047   5.193204   1.560455   0.000000
    10  H    3.149738   3.759357   4.342328   3.685104   0.000000
    11  H    3.481875   4.428403   3.770053   3.631116   1.552795
    12  H    4.452730   3.496864   3.717512   3.666395   5.132399
    13  H    3.954398   3.274870   3.988386   4.425989   5.377200
    14  Fe   2.715108   2.698160   2.779014   2.670950   2.664949
    15  N    3.210325   3.817029   3.036433   3.892516   3.930556
    16  H    2.812815   3.551364   4.038192   4.818502   4.322497
    17  H    3.682805   4.552890   3.163012   4.078979   3.893405
    18  H    4.083846   4.465888   2.861651   4.013188   4.807303
    19  C    5.694526   4.798698   5.880151   4.526721   4.557485
    20  H    5.962393   4.832790   6.465748   5.230296   5.354193
    21  H    4.723909   3.900130   4.921200   3.668231   3.680883
    22  H    5.766770   5.024576   6.513068   5.132278   4.429243
    23  H    6.499344   5.672913   5.788680   4.335847   5.020545
                   11         12         13         14         15
    11  H    0.000000
    12  H    5.435453   0.000000
    13  H    5.383011   1.559304   0.000000
    14  Fe   2.769653   2.686310   2.776295   0.000000
    15  N    3.133174   3.862367   3.054029   2.177703   0.000000
    16  H    3.630104   4.216889   3.138674   2.715758   1.021311
    17  H    2.743889   4.770724   4.060291   2.780389   1.020401
    18  H    3.993943   3.756258   2.841936   2.747325   1.021041
    19  C    5.847366   4.599931   5.870488   4.543745   6.720786
    20  H    6.632287   4.535820   5.831516   4.994623   7.136485
    21  H    4.880922   3.727426   4.900253   3.423163   5.600408
    22  H    5.861334   5.461326   6.601298   4.995709   7.148818
    23  H    6.183878   4.929029   6.314901   4.974351   7.110706
                   16         17         18         19         20
    16  H    0.000000
    17  H    1.623526   0.000000
    18  H    1.623553   1.620027   0.000000
    19  C    7.160936   7.232515   7.169347   0.000000
    20  H    7.488051   7.762440   7.526045   1.090243   0.000000
    21  H    6.048311   6.123215   6.063971   1.120789   1.786929
    22  H    7.535783   7.576244   7.716434   1.090200   1.796689
    23  H    7.672405   7.567911   7.472967   1.090184   1.796811
                   21         22         23
    21  H    0.000000
    22  H    1.787647   0.000000
    23  H    1.789239   1.796513   0.000000
 Stoichiometry    CH15FeNO5(2+,5)
 Framework group  C1[X(CH15FeNO5)]
 Deg. of freedom    63
 Full point group                 C1      NOp   1
 RotChk:  IX=2 Diff= 1.69D-13
 Largest Abelian subgroup         C1      NOp   1
 Largest concise Abelian subgroup C1      NOp   1
                         Standard orientation:                         
 ---------------------------------------------------------------------
 Center     Atomic      Atomic             Coordinates (Angstroms)
 Number     Number       Type             X           Y           Z
 ---------------------------------------------------------------------
      1          8           0       -0.564682    0.831427    1.897028
      2          8           0       -0.360845   -0.783119   -1.947242
      3          8           0       -0.419589    1.959319   -0.730609
      4          8           0       -0.437641   -1.894268    0.867885
      5          8           0        1.278514   -0.000696    0.011088
      6          1           0       -0.858427    1.749347    1.982001
      7          1           0        0.158812    0.713401    2.529036
      8          1           0       -0.997061   -1.393355   -2.341692
      9          1           0        0.488741   -0.918918   -2.389912
     10          1           0        0.432392    2.411611   -0.813717
     11          1           0       -0.973237    2.271723   -1.458551
     12          1           0        0.379300   -2.404109    0.960414
     13          1           0       -1.038918   -2.179205    1.568284
     14         26           0       -0.345599   -0.010750   -0.020717
     15          7           0       -2.521813   -0.072731   -0.072108
     16          1           0       -2.916632    0.222659    0.822285
     17          1           0       -2.969415    0.518288   -0.773226
     18          1           0       -2.896327   -1.008348   -0.236079
     19          6           0        4.197731   -0.009718    0.040715
     20          1           0        4.528532   -0.572339    0.914019
     21          1           0        3.076974   -0.001379    0.042183
     22          1           0        4.540519    1.024030    0.089668
     23          1           0        4.530555   -0.487775   -0.880800
 ---------------------------------------------------------------------
 Rotational constants (GHZ):      1.4838432      0.8179739      0.8164923
 Leave Link  202 at Tue Dec 25 14:05:52 2018, MaxMem=  3221225472 cpu:         0.1
 (Enter /share/apps/g09.d01/g09/l301.exe)
 General basis read from cards:  (6D, 7F)
 Centers:      14
 LANL2DZ
 ****
 Centers:      19      6      7      8      9     10     11     12     13     16
 Centers:      17     18     20     21     22     23      1      2      3      4
 Centers:       5     15
 6-31g(d,p)
 ****
 ======================================================================================================
                                       Pseudopotential Parameters
 ======================================================================================================
  Center     Atomic      Valence      Angular      Power
  Number     Number     Electrons     Momentum     of R      Exponent        Coefficient   SO-Coeffient
 ======================================================================================================
    1          8
                                   No pseudopotential on this center.
    2          8
                                   No pseudopotential on this center.
    3          8
                                   No pseudopotential on this center.
    4          8
                                   No pseudopotential on this center.
    5          8
                                   No pseudopotential on this center.
    6          1
                                   No pseudopotential on this center.
    7          1
                                   No pseudopotential on this center.
    8          1
                                   No pseudopotential on this center.
    9          1
                                   No pseudopotential on this center.
   10          1
                                   No pseudopotential on this center.
   11          1
                                   No pseudopotential on this center.
   12          1
                                   No pseudopotential on this center.
   13          1
                                   No pseudopotential on this center.
   14         26           16
                                      D and up 
                                                     1      392.6149787      -10.00000000    0.00000000
                                                     2       71.1756979      -63.26675180    0.00000000
                                                     2       17.7320281      -10.96133380    0.00000000
                                      S - D
                                                     0      126.0571895        3.00000000    0.00000000
                                                     1      138.1264251       18.17291370    0.00000000
                                                     2       54.2098858      339.12311640    0.00000000
                                                     2        9.2837966      317.10680120    0.00000000
                                                     2        8.6289082     -207.34216490    0.00000000
                                      P - D
                                                     0       83.1759490        5.00000000    0.00000000
                                                     1      106.0559938        5.95359300    0.00000000
                                                     2       42.8284937      294.26655270    0.00000000
                                                     2        8.7701805      154.42446350    0.00000000
                                                     2        8.0397818      -95.31642490    0.00000000
   15          7
                                   No pseudopotential on this center.
   16          1
                                   No pseudopotential on this center.
   17          1
                                   No pseudopotential on this center.
   18          1
                                   No pseudopotential on this center.
   19          6
                                   No pseudopotential on this center.
   20          1
                                   No pseudopotential on this center.
   21          1
                                   No pseudopotential on this center.
   22          1
                                   No pseudopotential on this center.
   23          1
                                   No pseudopotential on this center.
 ======================================================================================================
 Ernie: Thresh=  0.10000D-02 Tol=  0.10000D-05 Strict=F.
 Ernie:  1 primitive shells out of 170 were deleted.
 There are   204 symmetry adapted cartesian basis functions of A   symmetry.
 There are   204 symmetry adapted basis functions of A   symmetry.
   204 basis functions,   353 primitive gaussians,   204 cartesian basis functions
    43 alpha electrons       39 beta electrons
       nuclear repulsion energy       608.8156593545 Hartrees.
 IExCor= 4639 DFT=T Ex+Corr=wB97XD ExCW=0 ScaHFX=  1.000000
 ScaDFX=  1.000000  1.000000  1.000000  1.000000 ScalE2=  1.000000  1.000000
 IRadAn=      5 IRanWt=     -1 IRanGd=            0 ICorTp=0 IEmpDi=121
  HFx wShort=  0.000000 wLong=  0.200000 cFull=  0.222036 cShort=  0.000000 cLong=  0.777964
  DFx wShort=  0.000000 wLong=  0.200000 cFull=  0.000000 cShort=  0.000000 cLong=  1.000000
 NAtoms=   23 NActive=   23 NUniq=   23 SFac= 1.00D+00 NAtFMM=   60 NAOKFM=F Big=F
 Integral buffers will be    131072 words long.
 Raffenetti 2 integral format.
 Two-electron integral symmetry is turned on.
 R6Disp:  Grimme-D2 Dispersion energy=       -0.0123144868 Hartrees.
 Nuclear repulsion after empirical dispersion term =      608.8033448677 Hartrees.
 Leave Link  301 at Tue Dec 25 14:05:52 2018, MaxMem=  3221225472 cpu:         1.0
 (Enter /share/apps/g09.d01/g09/l302.exe)
 NPDir=0 NMtPBC=     1 NCelOv=     1 NCel=       1 NClECP=     1 NCelD=      1
         NCelK=      1 NCelE2=     1 NClLst=     1 CellRange=     0.0.
 One-electron integrals computed using PRISM.
   1 Symmetry operations used in ECPInt.
 ECPInt:  NShTT=    3321 NPrTT=   14551 LenC2=    3139 LenP2D=    9748.
 LDataN:  DoStor=T MaxTD1= 4 Len=   56
 NBasis=   204 RedAO= T EigKep=  5.19D-03  NBF=   204
 NBsUse=   204 1.00D-06 EigRej= -1.00D+00 NBFU=   204
 Precomputing XC quadrature grid using
 IXCGrd= 4 IRadAn=           5 IRanWt=          -1 IRanGd=           0 AccXCQ= 0.00D+00.
 Generated NRdTot=       0 NPtTot=           0 NUsed=           0 NTot=          32
 NSgBfM=   204   204   204   204   204 MxSgAt=    23 MxSgA2=    23.
 Leave Link  302 at Tue Dec 25 14:05:53 2018, MaxMem=  3221225472 cpu:         5.5
 (Enter /share/apps/g09.d01/g09/l303.exe)
 DipDrv:  MaxL=1.
 Leave Link  303 at Tue Dec 25 14:05:53 2018, MaxMem=  3221225472 cpu:         0.4
 (Enter /share/apps/g09.d01/g09/l401.exe)
 Initial guess from the checkpoint file:  "wts222.chk"
 B after Tr=     0.000000    0.000000    0.000000
         Rot=    1.000000    0.000000    0.000000    0.000000 Ang=   0.00 deg.
 Guess basis will be translated and rotated to current coordinates.
 JPrj=2 DoOrth=T DoCkMO=T.
 Initial guess <Sx>= 0.0000 <Sy>= 0.0000 <Sz>= 2.0000 <S**2>= 6.3496 S= 2.0690
 Leave Link  401 at Tue Dec 25 14:05:54 2018, MaxMem=  3221225472 cpu:         3.0
 (Enter /share/apps/g09.d01/g09/l502.exe)
 UHF open shell SCF:
 Using DIIS extrapolation, IDIIS=  1040.
 Integral symmetry usage will be decided dynamically.
 Keep R1 and R2 ints in memory in canonical form, NReq=878952881.
 IVT=      147401 IEndB=      147401 NGot=  3221225472 MDV=  2346580052
 LenX=  2346580052 LenY=  2346537995
 Requested convergence on RMS density matrix=1.00D-08 within 128 cycles.
 Requested convergence on MAX density matrix=1.00D-06.
 Requested convergence on             energy=1.00D-06.
 No special actions if energy rises.
 FoFCou: FMM=F IPFlag=           0 FMFlag=           0 FMFlg1=           0
         NFxFlg=           0 DoJE=F BraDBF=F KetDBF=F FulRan=T
         wScrn=  0.000000 ICntrl=     600 IOpCl=  0 I1Cent=           0 NGrid=           0
         NMat0=    1 NMatS0=  20910 NMatT0=    0 NMatD0=    1 NMtDS0=    0 NMtDT0=    0
 Symmetry not used in FoFCou.

 Cycle   1  Pass 1  IDiag  1:
 E= -600.742202024943    
 DIIS: error= 1.57D-08 at cycle   1 NSaved=   1.
 NSaved= 1 IEnMin= 1 EnMin= -600.742202024943     IErMin= 1 ErrMin= 1.57D-08
 ErrMax= 1.57D-08  0.00D+00 EMaxC= 1.00D-01 BMatC= 7.60D-14 BMatP= 7.60D-14
 IDIUse=1 WtCom= 1.00D+00 WtEn= 0.00D+00
 Coeff-Com:  0.100D+01
 Coeff:      0.100D+01
 Gap=     0.259 Goal=   None    Shift=    0.000
 Gap=     0.297 Goal=   None    Shift=    0.000
 RMSDP=1.95D-09 MaxDP=1.06D-07              OVMax= 2.65D-07

 SCF Done:  E(UwB97XD) =  -600.742202025     A.U. after    1 cycles
            NFock=  1  Conv=0.19D-08     -V/T= 2.1063
 <Sx>= 0.0000 <Sy>= 0.0000 <Sz>= 2.0000 <S**2>= 6.3496 S= 2.0690
 <L.S>= 0.000000000000E+00
 KE= 5.430337872437D+02 PE=-2.598434353019D+03 EE= 8.458550188825D+02
 Annihilation of the first spin contaminant:
 S**2 before annihilation     6.3496,   after     6.0037
 Leave Link  502 at Tue Dec 25 14:06:01 2018, MaxMem=  3221225472 cpu:        73.8
 (Enter /share/apps/g09.d01/g09/l801.exe)
 DoSCS=F DFT=T ScalE2(SS,OS)=  1.000000  1.000000
 Range of M.O.s used for correlation:     1   204
 NBasis=   204 NAE=    43 NBE=    39 NFC=     0 NFV=     0
 NROrb=    204 NOA=    43 NOB=    39 NVA=   161 NVB=   165
 Leave Link  801 at Tue Dec 25 14:06:01 2018, MaxMem=  3221225472 cpu:         0.4
 (Enter /share/apps/g09.d01/g09/l1101.exe)
 Using compressed storage, NAtomX=    23.
 Will process     24 centers per pass.
   1 Symmetry operations used in ECPInt.
 ECPInt:  NShTT=    3321 NPrTT=   14551 LenC2=    3139 LenP2D=    9748.
 LDataN:  DoStor=T MaxTD1= 5 Len=  102
 R6Disp: Adding Grimme-D2 dispersion energy 1st derivatives to the gradient.
 Leave Link 1101 at Tue Dec 25 14:06:02 2018, MaxMem=  3221225472 cpu:         6.8
 (Enter /share/apps/g09.d01/g09/l1102.exe)
 Symmetrizing basis deriv contribution to polar:
 IMax=3 JMax=2 DiffMx= 0.00D+00
 Leave Link 1102 at Tue Dec 25 14:06:03 2018, MaxMem=  3221225472 cpu:         0.5
 (Enter /share/apps/g09.d01/g09/l1110.exe)
 Forming Gx(P) for the SCF density, NAtomX=    23.
 Integral derivatives from FoFJK, PRISM(SPDF).
 Do as many integral derivatives as possible in FoFJK.
 G2DrvN: MDV=    3221225184.
 G2DrvN: will do    24 centers at a time, making    1 passes.
 Calling FoFCou, ICntrl=  3107 FMM=F I1Cent=   0 AccDes= 0.00D+00.
 FoFJK:  IHMeth= 1 ICntrl=    3107 DoSepK=T KAlg= 0 I1Cent=   0 FoldK=F
 IRaf=         1 NMat=   1 IRICut=       1 DoRegI=T DoRafI=F ISym2E= 0.
 FoFCou: FMM=F IPFlag=           0 FMFlag=      100000 FMFlg1=           0
         NFxFlg=           0 DoJE=F BraDBF=F KetDBF=F FulRan=T
         wScrn=  0.000000 ICntrl=    3507 IOpCl=  0 I1Cent=           0 NGrid=           0
         NMat0=    1 NMatS0=      1 NMatT0=    0 NMatD0=    1 NMtDS0=    0 NMtDT0=    0
 Symmetry not used in FoFCou.
 End of G2Drv F.D. properties file   721 does not exist.
 End of G2Drv F.D. properties file   722 does not exist.
 End of G2Drv F.D. properties file   788 does not exist.
 Leave Link 1110 at Tue Dec 25 14:07:28 2018, MaxMem=  3221225472 cpu:      1027.4
 (Enter /share/apps/g09.d01/g09/l1002.exe)
 Minotr:  UHF open shell wavefunction.
          IDoAtm=11111111111111111111111
          Direct CPHF calculation.
          Differentiating once with respect to nuclear coordinates.
          Requested convergence is 1.0D-08 RMS, and 1.0D-07 maximum.
          Secondary convergence is 1.0D-12 RMS, and 1.0D-12 maximum.
          NewPWx=T KeepS1=F KeepF1=F KeepIn=T MapXYZ=F SortEE=F KeepMc=T.
          MDV=    3221224830 using IRadAn=       1.
 Generate precomputed XC quadrature information.
 Keep R1 and R2 ints in memory in canonical form, NReq=878815341.
 FoFCou: FMM=F IPFlag=           0 FMFlag=           0 FMFlg1=           0
         NFxFlg=           0 DoJE=F BraDBF=F KetDBF=F FulRan=T
         wScrn=  0.000000 ICntrl=     600 IOpCl=  0 I1Cent=           0 NGrid=           0
         NMat0=    1 NMatS0=  20910 NMatT0=    0 NMatD0=    1 NMtDS0=    0 NMtDT0=    0
 Symmetry not used in FoFCou.
          Solving linear equations simultaneously, MaxMat=       0.
          There are    72 degrees of freedom in the 1st order CPHF.  IDoFFX=6 NUNeed=     0.
     66 vectors produced by pass  0 Test12= 1.86D-14 1.39D-09 XBig12= 1.34D-01 2.12D-01.
 AX will form    66 AO Fock derivatives at one time.
     66 vectors produced by pass  1 Test12= 1.86D-14 1.39D-09 XBig12= 2.08D-02 4.29D-02.
     66 vectors produced by pass  2 Test12= 1.86D-14 1.39D-09 XBig12= 9.07D-04 8.32D-03.
     66 vectors produced by pass  3 Test12= 1.86D-14 1.39D-09 XBig12= 1.84D-05 1.04D-03.
     66 vectors produced by pass  4 Test12= 1.86D-14 1.39D-09 XBig12= 2.76D-07 1.46D-04.
     66 vectors produced by pass  5 Test12= 1.86D-14 1.39D-09 XBig12= 3.08D-09 1.00D-05.
     66 vectors produced by pass  6 Test12= 1.86D-14 1.39D-09 XBig12= 2.48D-11 6.90D-07.
     49 vectors produced by pass  7 Test12= 1.86D-14 1.39D-09 XBig12= 1.69D-13 8.69D-08.
      9 vectors produced by pass  8 Test12= 1.86D-14 1.39D-09 XBig12= 1.35D-15 6.50D-09.
 InvSVY:  IOpt=1 It=  1 EMax= 7.22D-16
 Solved reduced A of dimension   520 with    72 vectors.
 End of Minotr F.D. properties file   721 does not exist.
 End of Minotr F.D. properties file   722 does not exist.
 End of Minotr F.D. properties file   788 does not exist.
 Leave Link 1002 at Tue Dec 25 14:09:05 2018, MaxMem=  3221225472 cpu:      1152.6
 (Enter /share/apps/g09.d01/g09/l601.exe)
 Copying SCF densities to generalized density rwf, IOpCl= 1 IROHF=0.

 **********************************************************************

            Population analysis using the SCF density.

 **********************************************************************

 Orbital symmetries:
 Alpha Orbitals:
       Occupied  (A) (A) (A) (A) (A) (A) (A) (A) (A) (A) (A) (A)
                 (A) (A) (A) (A) (A) (A) (A) (A) (A) (A) (A) (A)
                 (A) (A) (A) (A) (A) (A) (A) (A) (A) (A) (A) (A)
                 (A) (A) (A) (A) (A) (A) (A)
       Virtual   (A) (A) (A) (A) (A) (A) (A) (A) (A) (A) (A) (A)
                 (A) (A) (A) (A) (A) (A) (A) (A) (A) (A) (A) (A)
                 (A) (A) (A) (A) (A) (A) (A) (A) (A) (A) (A) (A)
                 (A) (A) (A) (A) (A) (A) (A) (A) (A) (A) (A) (A)
                 (A) (A) (A) (A) (A) (A) (A) (A) (A) (A) (A) (A)
                 (A) (A) (A) (A) (A) (A) (A) (A) (A) (A) (A) (A)
                 (A) (A) (A) (A) (A) (A) (A) (A) (A) (A) (A) (A)
                 (A) (A) (A) (A) (A) (A) (A) (A) (A) (A) (A) (A)
                 (A) (A) (A) (A) (A) (A) (A) (A) (A) (A) (A) (A)
                 (A) (A) (A) (A) (A) (A) (A) (A) (A) (A) (A) (A)
                 (A) (A) (A) (A) (A) (A) (A) (A) (A) (A) (A) (A)
                 (A) (A) (A) (A) (A) (A) (A) (A) (A) (A) (A) (A)
                 (A) (A) (A) (A) (A) (A) (A) (A) (A) (A) (A) (A)
                 (A) (A) (A) (A) (A)
 Beta  Orbitals:
       Occupied  (A) (A) (A) (A) (A) (A) (A) (A) (A) (A) (A) (A)
                 (A) (A) (A) (A) (A) (A) (A) (A) (A) (A) (A) (A)
                 (A) (A) (A) (A) (A) (A) (A) (A) (A) (A) (A) (A)
                 (A) (A) (A)
       Virtual   (A) (A) (A) (A) (A) (A) (A) (A) (A) (A) (A) (A)
                 (A) (A) (A) (A) (A) (A) (A) (A) (A) (A) (A) (A)
                 (A) (A) (A) (A) (A) (A) (A) (A) (A) (A) (A) (A)
                 (A) (A) (A) (A) (A) (A) (A) (A) (A) (A) (A) (A)
                 (A) (A) (A) (A) (A) (A) (A) (A) (A) (A) (A) (A)
                 (A) (A) (A) (A) (A) (A) (A) (A) (A) (A) (A) (A)
                 (A) (A) (A) (A) (A) (A) (A) (A) (A) (A) (A) (A)
                 (A) (A) (A) (A) (A) (A) (A) (A) (A) (A) (A) (A)
                 (A) (A) (A) (A) (A) (A) (A) (A) (A) (A) (A) (A)
                 (A) (A) (A) (A) (A) (A) (A) (A) (A) (A) (A) (A)
                 (A) (A) (A) (A) (A) (A) (A) (A) (A) (A) (A) (A)
                 (A) (A) (A) (A) (A) (A) (A) (A) (A) (A) (A) (A)
                 (A) (A) (A) (A) (A) (A) (A) (A) (A) (A) (A) (A)
                 (A) (A) (A) (A) (A) (A) (A) (A) (A)
 The electronic state is 5-A.
 Alpha  occ. eigenvalues --  -19.64363 -19.64344 -19.64333 -19.64261 -19.63926
 Alpha  occ. eigenvalues --  -14.79636 -10.49541  -4.16135  -2.94028  -2.94011
 Alpha  occ. eigenvalues --   -2.92431  -1.47689  -1.47216  -1.47151  -1.46795
 Alpha  occ. eigenvalues --   -1.36551  -1.30946  -0.99907  -0.98255  -0.98194
 Alpha  occ. eigenvalues --   -0.97886  -0.97352  -0.94238  -0.92610  -0.90960
 Alpha  occ. eigenvalues --   -0.90675  -0.89013  -0.88467  -0.88429  -0.87676
 Alpha  occ. eigenvalues --   -0.86629  -0.86428  -0.79125  -0.76541  -0.76403
 Alpha  occ. eigenvalues --   -0.75828  -0.74418  -0.74197  -0.72199  -0.72089
 Alpha  occ. eigenvalues --   -0.68383  -0.68372  -0.66395
 Alpha virt. eigenvalues --   -0.40535  -0.21679  -0.19746  -0.19586  -0.17500
 Alpha virt. eigenvalues --   -0.12361  -0.08366  -0.08121  -0.07579  -0.06628
 Alpha virt. eigenvalues --   -0.05668  -0.05410  -0.03459  -0.03020  -0.02268
 Alpha virt. eigenvalues --   -0.00520   0.02895   0.03243   0.04258   0.05757
 Alpha virt. eigenvalues --    0.06477   0.06504   0.12064   0.18908   0.25293
 Alpha virt. eigenvalues --    0.25935   0.26577   0.40676   0.40693   0.43113
 Alpha virt. eigenvalues --    0.45832   0.55405   0.55861   0.56138   0.57878
 Alpha virt. eigenvalues --    0.58623   0.61123   0.61203   0.63192   0.64424
 Alpha virt. eigenvalues --    0.64678   0.65465   0.66165   0.68531   0.69600
 Alpha virt. eigenvalues --    0.69943   0.71327   0.71915   0.73861   0.77164
 Alpha virt. eigenvalues --    0.77351   0.77674   0.80984   0.81640   0.82482
 Alpha virt. eigenvalues --    0.83088   0.84332   0.85368   0.89029   0.89393
 Alpha virt. eigenvalues --    0.92015   0.93371   0.94088   0.94561   1.03931
 Alpha virt. eigenvalues --    1.04144   1.07852   1.10086   1.11427   1.14214
 Alpha virt. eigenvalues --    1.20715   1.21130   1.23696   1.23731   1.25023
 Alpha virt. eigenvalues --    1.25290   1.29588   1.30302   1.31079   1.32465
 Alpha virt. eigenvalues --    1.32628   1.33172   1.44595   1.44969   1.50292
 Alpha virt. eigenvalues --    1.51582   1.55712   1.64432   1.65825   1.73192
 Alpha virt. eigenvalues --    1.74764   1.84478   1.86730   1.91824   1.91853
 Alpha virt. eigenvalues --    1.92729   1.94229   1.94348   1.95671   1.96217
 Alpha virt. eigenvalues --    1.96555   1.97182   2.00143   2.01826   2.02123
 Alpha virt. eigenvalues --    2.03628   2.04886   2.06261   2.06754   2.11424
 Alpha virt. eigenvalues --    2.12232   2.16004   2.19965   2.22291   2.23109
 Alpha virt. eigenvalues --    2.24302   2.27457   2.38601   2.39074   2.39436
 Alpha virt. eigenvalues --    2.39817   2.40260   2.42743   2.43070   2.46729
 Alpha virt. eigenvalues --    2.49546   2.51222   2.51392   2.59931   2.68482
 Alpha virt. eigenvalues --    2.69000   2.76175   2.77814   2.77883   2.78555
 Alpha virt. eigenvalues --    2.78682   2.79078   2.85445   2.99033   3.01764
 Alpha virt. eigenvalues --    3.06550   3.10125   3.10426   3.12532   3.20078
 Alpha virt. eigenvalues --    3.21444   3.27451   3.29428   3.29977   3.30314
 Alpha virt. eigenvalues --    3.31020   3.31076   3.34917   3.74360   3.79126
 Alpha virt. eigenvalues --    3.80992   3.82379   3.89995   4.03923   4.38324
 Alpha virt. eigenvalues --   29.17684
  Beta  occ. eigenvalues --  -19.64183 -19.64143 -19.64075 -19.63761 -19.63612
  Beta  occ. eigenvalues --  -14.79561 -10.49718  -3.95660  -2.73041  -2.70977
  Beta  occ. eigenvalues --   -2.70960  -1.47313  -1.46834  -1.46755  -1.46427
  Beta  occ. eigenvalues --   -1.34129  -1.30760  -1.00761  -0.97732  -0.97718
  Beta  occ. eigenvalues --   -0.97486  -0.97065  -0.90472  -0.89879  -0.89791
  Beta  occ. eigenvalues --   -0.87169  -0.85977  -0.85505  -0.83986  -0.78292
  Beta  occ. eigenvalues --   -0.77248  -0.76644  -0.75908  -0.74571  -0.72587
  Beta  occ. eigenvalues --   -0.72293  -0.68621  -0.68612  -0.67298
  Beta virt. eigenvalues --   -0.37596  -0.36743  -0.36615  -0.33757  -0.30635
  Beta virt. eigenvalues --   -0.21332  -0.19570  -0.19414  -0.17378  -0.12051
  Beta virt. eigenvalues --   -0.08031  -0.07834  -0.07393  -0.06477  -0.05510
  Beta virt. eigenvalues --   -0.05218  -0.03348  -0.02894  -0.02242  -0.00549
  Beta virt. eigenvalues --    0.03714   0.03939   0.05292   0.05750   0.06317
  Beta virt. eigenvalues --    0.06339   0.11362   0.19175   0.27932   0.28582
  Beta virt. eigenvalues --    0.30033   0.40633   0.40649   0.42404   0.47286
  Beta virt. eigenvalues --    0.55878   0.56576   0.56682   0.58274   0.59075
  Beta virt. eigenvalues --    0.61500   0.61803   0.63682   0.64672   0.65006
  Beta virt. eigenvalues --    0.65697   0.66533   0.69755   0.70245   0.71103
  Beta virt. eigenvalues --    0.72257   0.73473   0.74144   0.77083   0.77198
  Beta virt. eigenvalues --    0.77699   0.81471   0.81874   0.82814   0.83773
  Beta virt. eigenvalues --    0.85310   0.86130   0.89307   0.89637   0.92207
  Beta virt. eigenvalues --    0.93958   0.94333   0.95040   1.03839   1.04291
  Beta virt. eigenvalues --    1.08067   1.10344   1.11627   1.15012   1.20843
  Beta virt. eigenvalues --    1.21303   1.23132   1.23163   1.25175   1.25238
  Beta virt. eigenvalues --    1.29889   1.30534   1.31237   1.32689   1.32782
  Beta virt. eigenvalues --    1.33377   1.44898   1.45536   1.50601   1.52978
  Beta virt. eigenvalues --    1.58742   1.64065   1.67873   1.73027   1.74615
  Beta virt. eigenvalues --    1.84499   1.87305   1.91640   1.91673   1.92688
  Beta virt. eigenvalues --    1.93814   1.93932   1.95859   1.96419   1.96720
  Beta virt. eigenvalues --    1.97356   1.99931   2.01856   2.02218   2.03374
  Beta virt. eigenvalues --    2.05092   2.06324   2.06823   2.11568   2.12397
  Beta virt. eigenvalues --    2.16468   2.20282   2.22672   2.23264   2.24941
  Beta virt. eigenvalues --    2.27751   2.38694   2.39175   2.39530   2.39914
  Beta virt. eigenvalues --    2.40366   2.42890   2.43222   2.47361   2.49313
  Beta virt. eigenvalues --    2.50988   2.51158   2.60280   2.68544   2.69084
  Beta virt. eigenvalues --    2.76886   2.77527   2.77596   2.78627   2.78760
  Beta virt. eigenvalues --    2.79171   2.86920   2.99133   3.01440   3.06643
  Beta virt. eigenvalues --    3.10208   3.10515   3.12831   3.20139   3.21515
  Beta virt. eigenvalues --    3.27517   3.29146   3.30014   3.30292   3.30799
  Beta virt. eigenvalues --    3.30867   3.34722   3.75399   3.79509   3.81267
  Beta virt. eigenvalues --    3.82680   3.90709   4.04740   4.37652  29.47017
          Condensed to atoms (all electrons):
               1          2          3          4          5          6
     1  O    7.928670  -0.000220  -0.007105  -0.005471  -0.002993   0.301637
     2  O   -0.000220   7.928774  -0.004975  -0.004370  -0.004500   0.000007
     3  O   -0.007105  -0.004975   7.929543  -0.000216  -0.004043   0.000933
     4  O   -0.005471  -0.004370  -0.000216   7.931624  -0.004005   0.000111
     5  O   -0.002993  -0.004500  -0.004043  -0.004005   8.319705  -0.000202
     6  H    0.301637   0.000007   0.000933   0.000111  -0.000202   0.310101
     7  H    0.303491   0.000007  -0.000024  -0.000319   0.000226  -0.010953
     8  H    0.000003   0.307862   0.000045  -0.000291   0.000123   0.000000
     9  H    0.000006   0.304753  -0.000329  -0.000088   0.001184   0.000000
    10  H   -0.000304  -0.000200   0.302794   0.000009   0.001106   0.000053
    11  H    0.000176  -0.000325   0.305566   0.000005   0.000055  -0.000017
    12  H    0.000050  -0.000414   0.000008   0.304833   0.000917  -0.000002
    13  H   -0.000114   0.000028   0.000003   0.306811   0.000075  -0.000017
    14  Fe   0.105210   0.099475   0.102179   0.099404   0.115688  -0.012493
    15  N   -0.008998  -0.005757  -0.004976  -0.006759  -0.003964  -0.000136
    16  H    0.001031   0.000155  -0.000337  -0.000231   0.000053   0.000262
    17  H    0.000013  -0.000320  -0.000207   0.000133   0.000046   0.000000
    18  H   -0.000064  -0.000253   0.000099   0.000168   0.000052   0.000009
    19  C    0.000006   0.000004   0.000005   0.000005  -0.004124  -0.000001
    20  H    0.000000   0.000000   0.000000   0.000000  -0.000101   0.000000
    21  H    0.000030   0.000079   0.000063   0.000068   0.003813  -0.000006
    22  H    0.000000   0.000000   0.000000   0.000000  -0.000102   0.000000
    23  H    0.000000   0.000000   0.000000   0.000000  -0.000095   0.000000
               7          8          9         10         11         12
     1  O    0.303491   0.000003   0.000006  -0.000304   0.000176   0.000050
     2  O    0.000007   0.307862   0.304753  -0.000200  -0.000325  -0.000414
     3  O   -0.000024   0.000045  -0.000329   0.302794   0.305566   0.000008
     4  O   -0.000319  -0.000291  -0.000088   0.000009   0.000005   0.304833
     5  O    0.000226   0.000123   0.001184   0.001106   0.000055   0.000917
     6  H   -0.010953   0.000000   0.000000   0.000053  -0.000017  -0.000002
     7  H    0.304801   0.000000  -0.000001  -0.000021   0.000000  -0.000007
     8  H    0.000000   0.304671  -0.011866   0.000001  -0.000013   0.000010
     9  H   -0.000001  -0.011866   0.299551  -0.000017   0.000004  -0.000017
    10  H   -0.000021   0.000001  -0.000017   0.302569  -0.011489  -0.000002
    11  H    0.000000  -0.000013   0.000004  -0.011489   0.307007   0.000000
    12  H   -0.000007   0.000010  -0.000017  -0.000002   0.000000   0.300305
    13  H    0.000080  -0.000015  -0.000001   0.000000   0.000000  -0.011626
    14  Fe  -0.012381  -0.010596  -0.011541  -0.012188  -0.010697  -0.011620
    15  N    0.000253  -0.000127   0.000201   0.000183  -0.000143   0.000217
    16  H    0.000031  -0.000020  -0.000003   0.000005   0.000022   0.000000
    17  H    0.000000   0.000076   0.000002  -0.000005   0.000554  -0.000003
    18  H   -0.000003   0.000331  -0.000006  -0.000002  -0.000017   0.000002
    19  C   -0.000008   0.000000  -0.000009  -0.000009  -0.000001  -0.000010
    20  H   -0.000001   0.000000   0.000000   0.000000   0.000000   0.000001
    21  H   -0.000050  -0.000005  -0.000079  -0.000072  -0.000005  -0.000072
    22  H    0.000000   0.000000   0.000000   0.000001   0.000000   0.000000
    23  H    0.000000   0.000000   0.000002   0.000000   0.000000   0.000000
              13         14         15         16         17         18
     1  O   -0.000114   0.105210  -0.008998   0.001031   0.000013  -0.000064
     2  O    0.000028   0.099475  -0.005757   0.000155  -0.000320  -0.000253
     3  O    0.000003   0.102179  -0.004976  -0.000337  -0.000207   0.000099
     4  O    0.306811   0.099404  -0.006759  -0.000231   0.000133   0.000168
     5  O    0.000075   0.115688  -0.003964   0.000053   0.000046   0.000052
     6  H   -0.000017  -0.012493  -0.000136   0.000262   0.000000   0.000009
     7  H    0.000080  -0.012381   0.000253   0.000031   0.000000  -0.000003
     8  H   -0.000015  -0.010596  -0.000127  -0.000020   0.000076   0.000331
     9  H   -0.000001  -0.011541   0.000201  -0.000003   0.000002  -0.000006
    10  H    0.000000  -0.012188   0.000183   0.000005  -0.000005  -0.000002
    11  H    0.000000  -0.010697  -0.000143   0.000022   0.000554  -0.000017
    12  H   -0.011626  -0.011620   0.000217   0.000000  -0.000003   0.000002
    13  H    0.305998  -0.011322  -0.000200   0.000139  -0.000010   0.000221
    14  Fe  -0.011322  14.265385   0.157624  -0.013770  -0.011537  -0.012294
    15  N   -0.000200   0.157624   6.672402   0.331854   0.335003   0.333468
    16  H    0.000139  -0.013770   0.331854   0.345443  -0.013903  -0.014162
    17  H   -0.000010  -0.011537   0.335003  -0.013903   0.348683  -0.014805
    18  H    0.000221  -0.012294   0.333468  -0.014162  -0.014805   0.350914
    19  C    0.000000   0.003778   0.000000   0.000000   0.000000   0.000000
    20  H    0.000000   0.000002   0.000000   0.000000   0.000000   0.000000
    21  H   -0.000004   0.005042  -0.000004   0.000000   0.000000   0.000000
    22  H    0.000000  -0.000016   0.000000   0.000000   0.000000   0.000000
    23  H    0.000000  -0.000031   0.000000   0.000000   0.000000   0.000000
              19         20         21         22         23
     1  O    0.000006   0.000000   0.000030   0.000000   0.000000
     2  O    0.000004   0.000000   0.000079   0.000000   0.000000
     3  O    0.000005   0.000000   0.000063   0.000000   0.000000
     4  O    0.000005   0.000000   0.000068   0.000000   0.000000
     5  O   -0.004124  -0.000101   0.003813  -0.000102  -0.000095
     6  H   -0.000001   0.000000  -0.000006   0.000000   0.000000
     7  H   -0.000008  -0.000001  -0.000050   0.000000   0.000000
     8  H    0.000000   0.000000  -0.000005   0.000000   0.000000
     9  H   -0.000009   0.000000  -0.000079   0.000000   0.000002
    10  H   -0.000009   0.000000  -0.000072   0.000001   0.000000
    11  H   -0.000001   0.000000  -0.000005   0.000000   0.000000
    12  H   -0.000010   0.000001  -0.000072   0.000000   0.000000
    13  H    0.000000   0.000000  -0.000004   0.000000   0.000000
    14  Fe   0.003778   0.000002   0.005042  -0.000016  -0.000031
    15  N    0.000000   0.000000  -0.000004   0.000000   0.000000
    16  H    0.000000   0.000000   0.000000   0.000000   0.000000
    17  H    0.000000   0.000000   0.000000   0.000000   0.000000
    18  H    0.000000   0.000000   0.000000   0.000000   0.000000
    19  C    5.037489   0.392465   0.333874   0.392457   0.392342
    20  H    0.392465   0.488090  -0.027748  -0.019703  -0.019894
    21  H    0.333874  -0.027748   0.617523  -0.027680  -0.028091
    22  H    0.392457  -0.019703  -0.027680   0.488086  -0.019922
    23  H    0.392342  -0.019894  -0.028091  -0.019922   0.490857
          Atomic-Atomic Spin Densities.
               1          2          3          4          5          6
     1  O    0.096821   0.000071  -0.001350  -0.001340  -0.000788  -0.001800
     2  O    0.000071   0.110818  -0.001135  -0.001039  -0.001653  -0.000005
     3  O   -0.001350  -0.001135   0.104273   0.000069  -0.001392   0.000464
     4  O   -0.001340  -0.001039   0.000069   0.108122  -0.001349   0.000014
     5  O   -0.000788  -0.001653  -0.001392  -0.001349   0.415047  -0.000111
     6  H   -0.001800  -0.000005   0.000464   0.000014  -0.000111   0.002229
     7  H   -0.003025  -0.000002   0.000023   0.000177   0.000750   0.000493
     8  H   -0.000004  -0.002681   0.000041   0.000138  -0.000065   0.000000
     9  H   -0.000002  -0.003901   0.000071   0.000042   0.001474   0.000000
    10  H    0.000091   0.000036  -0.003539  -0.000002   0.001392  -0.000036
    11  H    0.000043   0.000217  -0.002429  -0.000004  -0.000085  -0.000019
    12  H    0.000040   0.000076  -0.000002  -0.003643   0.001219   0.000000
    13  H    0.000221   0.000029  -0.000004  -0.002530  -0.000071  -0.000007
    14  Fe  -0.042078  -0.046108  -0.044279  -0.045613  -0.157385   0.000348
    15  N   -0.001230  -0.001238  -0.001189  -0.001240   0.000357   0.000136
    16  H    0.000419  -0.000007  -0.000002   0.000012  -0.000011  -0.000011
    17  H   -0.000011   0.000057   0.000210  -0.000004  -0.000007   0.000003
    18  H   -0.000007   0.000105  -0.000008   0.000215  -0.000010  -0.000001
    19  C    0.000003   0.000003   0.000003   0.000003   0.009708   0.000000
    20  H    0.000000   0.000000   0.000000   0.000000  -0.000441   0.000000
    21  H    0.000054   0.000060   0.000058   0.000060   0.032382  -0.000005
    22  H    0.000000   0.000000   0.000000   0.000000  -0.000440   0.000000
    23  H    0.000000   0.000000   0.000000   0.000000  -0.000442   0.000000
               7          8          9         10         11         12
     1  O   -0.003025  -0.000004  -0.000002   0.000091   0.000043   0.000040
     2  O   -0.000002  -0.002681  -0.003901   0.000036   0.000217   0.000076
     3  O    0.000023   0.000041   0.000071  -0.003539  -0.002429  -0.000002
     4  O    0.000177   0.000138   0.000042  -0.000002  -0.000004  -0.003643
     5  O    0.000750  -0.000065   0.001474   0.001392  -0.000085   0.001219
     6  H    0.000493   0.000000   0.000000  -0.000036  -0.000019   0.000000
     7  H    0.001723   0.000000   0.000000  -0.000004  -0.000001  -0.000009
     8  H    0.000000   0.001997   0.000841   0.000000  -0.000010  -0.000008
     9  H    0.000000   0.000841   0.002100  -0.000003  -0.000011  -0.000004
    10  H   -0.000004   0.000000  -0.000003   0.001799   0.000699   0.000000
    11  H   -0.000001  -0.000010  -0.000011   0.000699   0.002217   0.000000
    12  H   -0.000009  -0.000008  -0.000004   0.000000   0.000000   0.001972
    13  H   -0.000027  -0.000006   0.000000   0.000000   0.000000   0.000796
    14  Fe   0.002065   0.001089   0.002041   0.001957   0.000911   0.002065
    15  N    0.000030   0.000244   0.000029   0.000024   0.000195   0.000029
    16  H   -0.000014  -0.000003   0.000001   0.000000   0.000000   0.000000
    17  H    0.000000  -0.000010  -0.000002  -0.000008  -0.000017   0.000000
    18  H    0.000000  -0.000004  -0.000004   0.000000  -0.000002  -0.000009
    19  C   -0.000004   0.000000  -0.000008  -0.000006   0.000000  -0.000006
    20  H    0.000001   0.000000   0.000000   0.000000   0.000000   0.000001
    21  H   -0.000034  -0.000004  -0.000056  -0.000051  -0.000004  -0.000051
    22  H    0.000000   0.000000   0.000000   0.000001   0.000000   0.000000
    23  H    0.000000   0.000000   0.000001   0.000000   0.000000   0.000000
              13         14         15         16         17         18
     1  O    0.000221  -0.042078  -0.001230   0.000419  -0.000011  -0.000007
     2  O    0.000029  -0.046108  -0.001238  -0.000007   0.000057   0.000105
     3  O   -0.000004  -0.044279  -0.001189  -0.000002   0.000210  -0.000008
     4  O   -0.002530  -0.045613  -0.001240   0.000012  -0.000004   0.000215
     5  O   -0.000071  -0.157385   0.000357  -0.000011  -0.000007  -0.000010
     6  H   -0.000007   0.000348   0.000136  -0.000011   0.000003  -0.000001
     7  H   -0.000027   0.002065   0.000030  -0.000014   0.000000   0.000000
     8  H   -0.000006   0.001089   0.000244  -0.000003  -0.000010  -0.000004
     9  H    0.000000   0.002041   0.000029   0.000001  -0.000002  -0.000004
    10  H    0.000000   0.001957   0.000024   0.000000  -0.000008   0.000000
    11  H    0.000000   0.000911   0.000195   0.000000  -0.000017  -0.000002
    12  H    0.000796   0.002065   0.000029   0.000000   0.000000  -0.000009
    13  H    0.002256   0.000834   0.000202   0.000016  -0.000003  -0.000026
    14  Fe   0.000834   3.929233  -0.021386  -0.001090  -0.000561  -0.000676
    15  N    0.000202  -0.021386   0.057758  -0.000304  -0.000484  -0.000431
    16  H    0.000016  -0.001090  -0.000304   0.001340   0.000042   0.000015
    17  H   -0.000003  -0.000561  -0.000484   0.000042   0.001241   0.000026
    18  H   -0.000026  -0.000676  -0.000431   0.000015   0.000026   0.001205
    19  C    0.000000   0.000937   0.000000   0.000000   0.000000   0.000000
    20  H    0.000000  -0.000280   0.000000   0.000000   0.000000   0.000000
    21  H   -0.000004   0.003884  -0.000001   0.000000   0.000000   0.000000
    22  H    0.000000  -0.000277   0.000000   0.000000   0.000000   0.000000
    23  H    0.000000  -0.000270   0.000000   0.000000   0.000000   0.000000
              19         20         21         22         23
     1  O    0.000003   0.000000   0.000054   0.000000   0.000000
     2  O    0.000003   0.000000   0.000060   0.000000   0.000000
     3  O    0.000003   0.000000   0.000058   0.000000   0.000000
     4  O    0.000003   0.000000   0.000060   0.000000   0.000000
     5  O    0.009708  -0.000441   0.032382  -0.000440  -0.000442
     6  H    0.000000   0.000000  -0.000005   0.000000   0.000000
     7  H   -0.000004   0.000001  -0.000034   0.000000   0.000000
     8  H    0.000000   0.000000  -0.000004   0.000000   0.000000
     9  H   -0.000008   0.000000  -0.000056   0.000000   0.000001
    10  H   -0.000006   0.000000  -0.000051   0.000001   0.000000
    11  H    0.000000   0.000000  -0.000004   0.000000   0.000000
    12  H   -0.000006   0.000001  -0.000051   0.000000   0.000000
    13  H    0.000000   0.000000  -0.000004   0.000000   0.000000
    14  Fe   0.000937  -0.000280   0.003884  -0.000277  -0.000270
    15  N    0.000000   0.000000  -0.000001   0.000000   0.000000
    16  H    0.000000   0.000000   0.000000   0.000000   0.000000
    17  H    0.000000   0.000000   0.000000   0.000000   0.000000
    18  H    0.000000   0.000000   0.000000   0.000000   0.000000
    19  C   -0.111337   0.001316  -0.038517   0.001321   0.001379
    20  H    0.001316   0.001107   0.000469  -0.000711  -0.000691
    21  H   -0.038517   0.000469  -0.000796   0.000466   0.000381
    22  H    0.001321  -0.000711   0.000466   0.001154  -0.000690
    23  H    0.001379  -0.000691   0.000381  -0.000690   0.001447
 Mulliken charges and spin densities:
               1          2
     1  O   -0.615053   0.046130
     2  O   -0.619810   0.053702
     3  O   -0.619024   0.049882
     4  O   -0.621418   0.052087
     5  O   -0.418915   0.298082
     6  H    0.410715   0.001693
     7  H    0.414877   0.002142
     8  H    0.409809   0.001555
     9  H    0.418254   0.002611
    10  H    0.417588   0.002349
    11  H    0.409317   0.001701
    12  H    0.417430   0.002467
    13  H    0.409955   0.001678
    14  Fe   1.176698   3.585363
    15  N   -0.800141   0.031499
    16  H    0.363433   0.000401
    17  H    0.356279   0.000474
    18  H    0.356343   0.000391
    19  C   -0.548262  -0.135206
    20  H    0.186890   0.000770
    21  H    0.123324  -0.001711
    22  H    0.186880   0.000823
    23  H    0.184832   0.001116
 Sum of Mulliken charges =   2.00000   4.00000
 Mulliken charges and spin densities with hydrogens summed into heavy atoms:
               1          2
     1  O    0.210539   0.049965
     2  O    0.208252   0.057868
     3  O    0.207881   0.053932
     4  O    0.205967   0.056232
     5  O   -0.418915   0.298082
    14  Fe   1.176698   3.585363
    15  N    0.275914   0.032765
    19  C    0.133664  -0.134209
 APT charges:
               1
     1  O   -1.380593
     2  O   -1.476297
     3  O   -1.431851
     4  O   -1.465091
     5  O   -0.457472
     6  H    0.794607
     7  H    0.712340
     8  H    0.893889
     9  H    0.707087
    10  H    0.687788
    11  H    0.867559
    12  H    0.712931
    13  H    0.875952
    14  Fe   1.646681
    15  N   -1.895054
    16  H    0.666744
    17  H    0.714647
    18  H    0.687690
    19  C   -1.378299
    20  H    0.561764
    21  H   -0.158291
    22  H    0.562505
    23  H    0.550763
 Sum of APT charges =   2.00000
 APT charges with hydrogens summed into heavy atoms:
               1
     1  O    0.126354
     2  O    0.124680
     3  O    0.123496
     4  O    0.123792
     5  O   -0.457472
    14  Fe   1.646681
    15  N    0.174027
    19  C    0.138442
 Electronic spatial extent (au):  <R**2>=           1741.2226
 Charge=              2.0000 electrons
 Dipole moment (field-independent basis, Debye):
    X=             -5.6005    Y=             -0.1424    Z=             -0.3780  Tot=              5.6151
 Quadrupole moment (field-independent basis, Debye-Ang):
   XX=            -19.3875   YY=            -23.3895   ZZ=            -23.6369
   XY=              0.4634   XZ=              1.3358   YZ=             -0.8144
 Traceless Quadrupole moment (field-independent basis, Debye-Ang):
   XX=              2.7505   YY=             -1.2515   ZZ=             -1.4990
   XY=              0.4634   XZ=              1.3358   YZ=             -0.8144
 Octapole moment (field-independent basis, Debye-Ang**2):
  XXX=            -34.0459  YYY=              5.2621  ZZZ=             -2.7130  XYY=            -18.3274
  XXY=             -3.0682  XXZ=             -5.2894  XZZ=            -17.0722  YZZ=             -5.6654
  YYZ=              1.3643  XYZ=              0.9309
 Hexadecapole moment (field-independent basis, Debye-Ang**3):
 XXXX=           -808.6556 YYYY=           -220.5894 ZZZZ=           -216.2938 XXXY=              5.7896
 XXXZ=             10.0356 YYYX=              4.0462 YYYZ=            -56.3587 ZZZX=              7.3731
 ZZZY=             50.7189 XXYY=           -221.2397 XXZZ=           -225.6826 YYZZ=            -27.3387
 XXYZ=             -3.8770 YYXZ=              0.3011 ZZXY=             -2.7949
 N-N= 6.088033448677D+02 E-N=-2.598434351231D+03  KE= 5.430337872437D+02
  Exact polarizability:   0.000   0.000   0.000   0.000   0.000   0.000
 Approx polarizability: 132.742  -0.164  57.176   1.548  -0.375  57.016
                          Isotropic Fermi Contact Couplings
        Atom                 a.u.       MegaHertz       Gauss      10(-4) cm-1
     1  O(17)              0.10057     -15.24052      -5.43820      -5.08369
     2  O(17)              0.11596     -17.57324      -6.27057      -5.86180
     3  O(17)              0.10877     -16.48386      -5.88185      -5.49842
     4  O(17)              0.11406     -17.28522      -6.16780      -5.76573
     5  O(17)              0.11133     -16.87149      -6.02017      -5.62772
     6  H(1)               0.00095       1.06580       0.38030       0.35551
     7  H(1)               0.00049       0.54687       0.19514       0.18242
     8  H(1)               0.00073       0.81681       0.29146       0.27246
     9  H(1)               0.00045       0.49937       0.17819       0.16657
    10  H(1)               0.00031       0.34279       0.12232       0.11434
    11  H(1)               0.00085       0.95525       0.34086       0.31864
    12  H(1)               0.00050       0.55991       0.19979       0.18677
    13  H(1)               0.00085       0.94587       0.33751       0.31551
    14  Fe(57)             0.00007       0.00268       0.00096       0.00090
    15  N(14)              0.03618       2.92280       1.04293       0.97494
    16  H(1)               0.00037       0.41587       0.14839       0.13872
    17  H(1)               0.00044       0.49624       0.17707       0.16553
    18  H(1)               0.00039       0.43435       0.15499       0.14488
    19  C(13)             -0.00921      -2.58708      -0.92313      -0.86296
    20  H(1)              -0.00059      -0.65484      -0.23366      -0.21843
    21  H(1)              -0.01888     -21.09450      -7.52704      -7.03637
    22  H(1)              -0.00056      -0.62303      -0.22231      -0.20782
    23  H(1)              -0.00040      -0.44815      -0.15991      -0.14949
 --------------------------------------------------------
       Center         ----  Spin Dipole Couplings  ----
                      3XX-RR        3YY-RR        3ZZ-RR
 --------------------------------------------------------
     1   Atom       -0.130593     -0.072919      0.203512
     2   Atom       -0.161764     -0.035901      0.197666
     3   Atom       -0.152563      0.220586     -0.068023
     4   Atom       -0.153819      0.194253     -0.040434
     5   Atom       -2.874858      1.444868      1.429990
     6   Atom       -0.028682      0.013945      0.014738
     7   Atom       -0.021416     -0.027549      0.048965
     8   Atom       -0.018532     -0.007358      0.025890
     9   Atom       -0.013586     -0.025119      0.038705
    10   Atom       -0.015217      0.043030     -0.027813
    11   Atom       -0.021309      0.024565     -0.003255
    12   Atom       -0.015909      0.039267     -0.023358
    13   Atom       -0.019014      0.018432      0.000582
    14   Atom       -1.764826      0.881499      0.883327
    15   Atom        0.154817     -0.077300     -0.077517
    16   Atom        0.046401     -0.029281     -0.017120
    17   Atom        0.043025     -0.023378     -0.019647
    18   Atom        0.042109     -0.013230     -0.028879
    19   Atom       -0.159130      0.079580      0.079550
    20   Atom        0.012717     -0.001728     -0.010989
    21   Atom       -0.009493      0.004754      0.004738
    22   Atom        0.012706     -0.017574      0.004868
    23   Atom        0.012845      0.000101     -0.012945
 --------------------------------------------------------
                        XY            XZ            YZ
 --------------------------------------------------------
     1   Atom       -0.003765     -0.062271      0.120873
     2   Atom       -0.022513      0.007751      0.062522
     3   Atom       -0.021481     -0.016883     -0.070281
     4   Atom        0.030286      0.019481     -0.083907
     5   Atom        0.026223     -0.030960     -0.004890
     6   Atom       -0.015892     -0.012500      0.040356
     7   Atom        0.001559      0.019218      0.021526
     8   Atom        0.016464      0.019722      0.035433
     9   Atom       -0.010255     -0.027457      0.027888
    10   Atom        0.026251     -0.007767     -0.025167
    11   Atom       -0.017635      0.017009     -0.036408
    12   Atom       -0.024477      0.008733     -0.029423
    13   Atom        0.018243     -0.019200     -0.037369
    14   Atom       -0.013405     -0.056012      0.003026
    15   Atom        0.006975      0.001702      0.000073
    16   Atom       -0.007056     -0.025549      0.004048
    17   Atom       -0.014838      0.020923     -0.006846
    18   Atom        0.028239      0.006027      0.003228
    19   Atom        0.001451     -0.000970     -0.000018
    20   Atom       -0.000317      0.000718      0.010274
    21   Atom        0.000561      0.001038     -0.000019
    22   Atom        0.000405      0.000185     -0.000977
    23   Atom       -0.000202     -0.000293     -0.009166
 --------------------------------------------------------


 ---------------------------------------------------------------------------------
              Anisotropic Spin Dipole Couplings in Principal Axis System
 ---------------------------------------------------------------------------------

       Atom             a.u.   MegaHertz   Gauss  10(-4) cm-1        Axes

              Baa    -0.1501    10.862     3.876     3.623  0.8587 -0.4193  0.2945
     1 O(17)  Bbb    -0.1080     7.812     2.788     2.606  0.4894  0.8415 -0.2287
              Bcc     0.2581   -18.674    -6.663    -6.229 -0.1520  0.3406  0.9279
 
              Baa    -0.1667    12.060     4.303     4.023  0.9794  0.1945 -0.0542
     2 O(17)  Bbb    -0.0467     3.379     1.206     1.127 -0.2019  0.9504 -0.2368
              Bcc     0.2134   -15.439    -5.509    -5.150  0.0055  0.2428  0.9701
 
              Baa    -0.1593    11.529     4.114     3.846  0.9613  0.1017  0.2560
     3 O(17)  Bbb    -0.0782     5.659     2.019     1.888 -0.2720  0.2018  0.9409
              Bcc     0.2375   -17.189    -6.133    -5.734 -0.0440  0.9741 -0.2216
 
              Baa    -0.1632    11.812     4.215     3.940  0.9589 -0.1393 -0.2473
     4 O(17)  Bbb    -0.0593     4.293     1.532     1.432  0.2771  0.2718  0.9216
              Bcc     0.2226   -16.105    -5.747    -5.372  0.0611  0.9522 -0.2993
 
              Baa    -2.8752   208.050    74.238    69.398  1.0000 -0.0061  0.0072
     5 O(17)  Bbb     1.4286  -103.375   -36.887   -34.482 -0.0051  0.2960  0.9552
              Bcc     1.4466  -104.675   -37.351   -34.916  0.0079  0.9552 -0.2960
 
              Baa    -0.0340   -18.142    -6.473    -6.051  0.9329  0.3558 -0.0554
     6 H(1)   Bbb    -0.0253   -13.487    -4.812    -4.499  0.2831 -0.6297  0.7235
              Bcc     0.0593    31.629    11.286    10.550 -0.2226  0.6906  0.6881
 
              Baa    -0.0344   -18.380    -6.558    -6.131  0.3496  0.8845 -0.3088
     7 H(1)   Bbb    -0.0246   -13.148    -4.691    -4.386  0.9083 -0.4009 -0.1199
              Bcc     0.0591    31.527    11.250    10.516  0.2299  0.2386  0.9435
 
              Baa    -0.0319   -17.041    -6.081    -5.684 -0.5213  0.7953 -0.3095
     8 H(1)   Bbb    -0.0251   -13.377    -4.773    -4.462  0.7911  0.3144 -0.5247
              Bcc     0.0570    30.418    10.854    10.147  0.3200  0.5184  0.7930
 
              Baa    -0.0356   -18.988    -6.775    -6.334 -0.0041  0.9357 -0.3528
     9 H(1)   Bbb    -0.0251   -13.416    -4.787    -4.475  0.9303  0.1330  0.3420
              Bcc     0.0607    32.404    11.563    10.809 -0.3669  0.3268  0.8710
 
              Baa    -0.0359   -19.139    -6.829    -6.384 -0.0482  0.3180  0.9469
    10 H(1)   Bbb    -0.0250   -13.355    -4.765    -4.455  0.9398 -0.3067  0.1508
              Bcc     0.0609    32.494    11.595    10.839  0.3384  0.8971 -0.2841
 
              Baa    -0.0324   -17.280    -6.166    -5.764  0.6969 -0.2205 -0.6825
    11 H(1)   Bbb    -0.0247   -13.185    -4.705    -4.398  0.6536  0.5869  0.4778
              Bcc     0.0571    30.465    10.871    10.162 -0.2952  0.7790 -0.5531
 
              Baa    -0.0351   -18.719    -6.679    -6.244  0.0787  0.3891  0.9178
    12 H(1)   Bbb    -0.0247   -13.203    -4.711    -4.404  0.9426  0.2705 -0.1956
              Bcc     0.0598    31.922    11.391    10.648 -0.3244  0.8806 -0.3455
 
              Baa    -0.0321   -17.118    -6.108    -5.710  0.6299  0.3019  0.7156
    13 H(1)   Bbb    -0.0249   -13.289    -4.742    -4.433  0.7046 -0.6097 -0.3631
              Bcc     0.0570    30.407    10.850    10.143  0.3267  0.7329 -0.5967
 
              Baa    -1.7661   -30.576   -10.910   -10.199  0.9998  0.0050  0.0211
    14 Fe(57) Bbb     0.8794    15.225     5.433     5.079  0.0073  0.8386 -0.5447
              Bcc     0.8867    15.351     5.477     5.120 -0.0205  0.5447  0.8384
 
              Baa    -0.0775    -2.991    -1.067    -0.998  0.0100 -0.5376  0.8432
    15 N(14)  Bbb    -0.0775    -2.989    -1.066    -0.997 -0.0292  0.8427  0.5376
              Bcc     0.1550     5.979     2.134     1.995  0.9995  0.0300  0.0073
 
              Baa    -0.0305   -16.284    -5.810    -5.432 -0.0222  0.9446 -0.3276
    16 H(1)   Bbb    -0.0256   -13.676    -4.880    -4.562  0.3445  0.3148  0.8844
              Bcc     0.0562    29.960    10.690     9.993  0.9385 -0.0933 -0.3324
 
              Baa    -0.0286   -15.281    -5.453    -5.097 -0.0357  0.7534  0.6566
    17 H(1)   Bbb    -0.0242   -12.895    -4.601    -4.301 -0.3546 -0.6238  0.6965
              Bcc     0.0528    28.177    10.054     9.399  0.9343 -0.2080  0.2894
 
              Baa    -0.0295   -15.754    -5.622    -5.255 -0.0188 -0.1628  0.9865
    18 H(1)   Bbb    -0.0250   -13.341    -4.760    -4.450 -0.3947  0.9077  0.1423
              Bcc     0.0545    29.095    10.382     9.705  0.9186  0.3867  0.0813
 
[...]
 -0.00240373,-0.02786098,-0.01507247,0.00698580,-0.02968312,0.01880841,
 -0.00724428,-0.02824376,0.01940950,0.00788014,-0.02926404,-0.00087575,
 -0.00415868,-0.00692589,-0.00625709,0.00339781,0.00128539,-0.00595087,
 0.00447515,-0.00348975,-0.00417630,-0.00446886,0.00014232,-0.00583232,
 0.00328076,-0.00394721,0.00380230,-0.00574700,0.00269533,0.00149471,-0
 .00329691,-0.00287971,0.00376660,0.00537137,0.00310133,0.00138561,-0.0
 0695866,0.16267327,0.00653171,-0.01368645,-0.02613430,-0.00739721,-0.0
 2025750,-0.02923825,-0.00190814,0.01149502,-0.02495481,0.00190564,0.01
 413664,-0.03012994,-0.00303581,0.00126485,-0.02908759,-0.00401224,-0.0
 0196072,0.00582992,0.00171731,-0.00478754,-0.00500453,0.00589067,-0.00
 146784,0.00172269,-0.00386560,-0.00363464,-0.00304577,-0.00395238,0.00
 648671,0.00016464,0.00439850,0.00496052,-0.00399159,0.00458262,0.00559
 942,0.00037742,-0.00441278,0.00464349,-0.00469322,0.00698407,-0.003168
 88,0.16151541,-0.00245423,0.00179557,0.00277719,-0.00280973,-0.0013348
 7,-0.00231472,-0.00196043,0.00203211,-0.00104353,-0.00335173,-0.002472
 01,0.00175759,0.01383466,0.00001344,0.00030462,-0.00073379,-0.00029625
 ,-0.00008465,-0.00024310,0.00047360,-0.00061400,-0.00060893,0.00022296
 ,0.00042307,0.00004071,-0.00015035,0.00016704,0.00002763,-0.00017630,-
 0.00008810,-0.00053599,-0.00044232,0.00021702,-0.00003828,0.00045324,0
 .00038609,-0.00058577,0.00027965,-0.00038446,-0.04934631,0.00070993,-0
 .00055184,0.36447746,0.00448249,0.00050084,-0.00370311,-0.00573278,0.0
 0015682,-0.00244733,0.00567688,-0.00121512,0.00165306,-0.00406538,-0.0
 0078125,0.00180962,-0.00112723,0.00221465,-0.00009089,-0.00119204,0.00
 087220,0.00117084,-0.00013482,-0.00077490,0.00034276,0.00112555,0.0010
 2240,0.00122590,0.00035289,-0.00053162,-0.00007854,-0.00031370,-0.0000
 0522,0.00071661,-0.00086608,-0.00021042,-0.00128051,0.00024126,0.00008
 944,0.00045574,0.00035994,-0.00007317,-0.00062541,0.00190575,-0.021325
 83,0.00020726,0.01432315,0.65594006,0.00350281,-0.00248228,-0.00086051
 ,-0.00630816,-0.00161682,-0.00133398,-0.00388748,0.00236553,0.00014639
 ,0.00655323,0.00313264,0.00027122,-0.00040024,0.00008161,0.00223316,0.
 00030441,0.00020411,-0.00073690,-0.00001053,-0.00053627,0.00031959,0.0
 0120355,0.00132984,0.00046330,0.00036067,-0.00054580,-0.00009461,0.000
 38415,0.00010735,-0.00039886,0.00051986,-0.00124588,0.00058440,-0.0002
 4786,-0.00022136,-0.00081450,-0.00156895,-0.00127601,0.00125119,-0.000
 37054,0.00042290,-0.02174065,-0.02283135,0.00124391,0.65865881,0.00282
 804,0.00014585,-0.00077741,-0.00145525,-0.00003667,-0.00037007,0.00020
 773,0.00023006,0.00065158,0.00060805,0.00088837,0.00050453,0.00050955,
 0.00026160,0.00034022,-0.00095763,0.00142295,0.00015417,-0.00012725,-0
 .00043368,0.00068522,0.00001040,0.00025877,0.00018683,0.00004330,-0.00
 021315,-0.00006651,-0.00011306,0.00008866,0.00000651,0.00006552,-0.000
 19873,-0.00015879,-0.00021171,-0.00003903,0.00002516,-0.00028698,-0.00
 089997,0.00038070,-0.00447275,-0.00745532,-0.00888567,-0.09715516,-0.1
 0856509,-0.12157342,0.09210555,-0.00091231,-0.00097158,0.00004203,0.00
 041750,0.00010458,0.00011219,-0.00020570,-0.00063102,-0.00019690,0.000
 41543,-0.00014778,0.00025206,-0.00055378,-0.00020088,-0.00010436,0.001
 77327,-0.00059511,-0.00016888,0.00010285,-0.00004277,-0.00026207,0.000
 06313,-0.00012267,0.00011364,0.00002783,0.00011962,-0.00008636,0.00007
 253,0.00003173,-0.00001804,0.00007384,0.00045335,0.00010392,-0.0000613
 7,-0.00004717,0.00012059,-0.00079780,-0.00026080,0.00031084,-0.0013598
 2,0.00261053,0.00129552,-0.07903842,-0.19222705,-0.15080539,0.09152703
 ,0.20610676,-0.00047767,-0.00000771,-0.00126642,0.00032878,0.00002979,
 0.00017253,0.00044383,0.00015942,-0.00010849,-0.00028011,-0.00023702,-
 0.00065393,-0.00049121,-0.00007867,-0.00020735,0.00016637,-0.00024336,
 0.00083039,0.00021030,-0.00007181,0.00000106,-0.00011198,-0.00009480,-
 0.00027453,0.00001384,-0.00006886,0.00005525,-0.00005151,0.00012362,0.
 00006345,-0.00025070,-0.00014604,-0.00024969,0.00007325,0.00002261,-0.
 00002638,0.00064444,0.00064337,0.00015227,-0.00209139,0.00061020,0.002
 02275,-0.08965307,-0.15416397,-0.23831271,0.10332648,0.16853245,0.2530
 1149,-0.00031413,0.00043259,-0.00017076,0.00153370,0.00064837,-0.00020
 785,0.00237608,-0.00097547,-0.00036018,-0.00118610,-0.00053171,-0.0001
 0152,0.00083838,0.00011714,-0.00036485,-0.00010952,0.00012887,0.000372
 53,-0.00012343,0.00009422,-0.00000853,-0.00032431,-0.00084882,0.000043
 44,-0.00025723,0.00012812,-0.00016093,-0.00037568,0.00011601,0.0000461
 5,-0.00117634,0.00159469,-0.00130677,0.00000133,0.00001280,0.00026381,
 -0.00002505,0.00015856,-0.00015909,-0.00396258,-0.00307795,0.00989623,
 -0.12741210,-0.05355528,0.17957621,0.00544353,0.00401490,-0.01556665,0
 .12097717,0.00054923,-0.00052000,-0.00005168,0.00086175,-0.00036950,-0
 .00032179,-0.00116693,-0.00053888,0.00013016,-0.00051423,-0.00009462,0
 .00004359,-0.00034439,-0.00010429,0.00003090,0.00024223,0.00015081,-0.
 00037657,0.00008864,-0.00012343,0.00004161,-0.00099486,-0.00054755,0.0
 0002911,-0.00009123,0.00000456,-0.00015919,0.00013488,-0.00010096,0.00
 003103,0.00140417,0.00012809,0.00087496,-0.00001677,0.00012039,0.00013
 160,0.00015589,-0.00016259,-0.00014475,-0.00036423,0.00136498,-0.00090
 478,-0.04030732,-0.08194803,0.07478271,0.01274668,0.00776153,-0.023542
 39,0.04661226,0.08319476,0.00001420,0.00008806,-0.00009275,0.00056049,
 0.00017193,-0.00069417,0.00045240,-0.00018249,-0.00052266,-0.00063500,
 -0.00028755,0.00006032,0.00085597,0.00004269,-0.00020524,0.00015814,-0
 .00008070,-0.00000718,-0.00001514,-0.00006681,-0.00002131,-0.00031613,
 -0.00034586,0.00045037,-0.00011296,-0.00000733,0.00008667,-0.00012038,
 0.00003312,-0.00007046,-0.00114820,0.00092378,0.00010998,-0.00004089,0
 .00005391,0.00009581,0.00004871,0.00005231,-0.00018147,0.00167104,-0.0
 0095161,0.00311607,0.13708001,0.07617774,-0.31925936,0.01521266,0.0099
 2170,-0.02342087,-0.15821516,-0.08551012,0.34759620,-0.00079372,-0.000
 47935,0.00073685,0.00156518,-0.00053383,0.00114254,-0.00110801,0.00013
 318,-0.00017039,0.00265271,-0.00011268,-0.00043262,0.00080773,-0.00043
 265,0.00012488,0.00012623,-0.00011197,-0.00027157,-0.00006728,0.000269
 39,-0.00001392,-0.00059593,-0.00064814,-0.00160295,-0.00032476,-0.0000
 3916,-0.00003830,0.00001643,0.00005540,-0.00019896,0.00000048,0.000007
 61,0.00017217,-0.00033229,-0.00041258,-0.00026010,-0.00067511,0.000066
 06,0.00147214,-0.00344282,0.01140700,-0.00284056,-0.08569394,0.1466832
 9,-0.03536258,0.00338904,-0.01597460,0.00336909,0.00463686,-0.01921948
 ,0.00518190,0.08039150,-0.00004374,-0.00003967,0.00003030,0.00032030,-
 0.00059289,0.00013690,-0.00043791,0.00013492,-0.00014609,0.00014699,-0
 .00103709,-0.00012199,0.00072067,-0.00020611,0.00006615,-0.00002674,-0
 .00007268,-0.00005006,0.00001280,0.00000839,-0.00002908,-0.00067927,0.
 00034367,-0.00075373,-0.00006881,0.00000736,-0.00003761,-0.00002806,-0
 .00001063,-0.00000469,0.00010318,-0.00009156,0.00017508,-0.00015376,0.
 00015207,0.00009164,-0.00005462,0.00074082,0.00020961,0.00232996,0.002
 10423,-0.00024589,0.10387785,-0.36149172,0.07506424,0.01029267,-0.0219
 4281,0.00852291,0.00493450,-0.00820537,-0.00002960,-0.12069544,0.39017
 837,0.00065575,0.00015936,-0.00065333,0.00107962,-0.00035083,-0.000265
 15,-0.00049456,0.00006147,-0.00004092,-0.00102683,0.00021864,-0.000747
 69,-0.00016261,0.00000450,-0.00011894,-0.00029941,0.00019163,0.0001415
 2,0.00008477,-0.00015749,0.00011507,-0.00144339,-0.00059807,-0.0005692
 1,-0.00014267,-0.00014252,-0.00005567,0.00001471,0.00005383,0.00000961
 ,0.00025120,-0.00004477,0.00025453,0.00012403,0.00024708,-0.00002208,0
 .00161706,-0.00000350,-0.00077942,-0.00080433,0.00012052,0.00134290,-0
 .02539176,0.07737076,-0.08016958,0.01039394,-0.02919032,0.00819513,-0.
 01359006,0.03491954,-0.00703951,0.02901872,-0.08285405,0.08040773,0.00
 141199,0.00668989,0.00532081,0.00192537,-0.00721686,-0.00603526,0.0020
 7108,0.00581539,-0.00665268,0.00151202,-0.00530913,0.00731079,-0.08978
 835,0.00129847,-0.00210798,-0.00040576,-0.00126168,0.00089974,0.001864
 49,-0.00038116,-0.00147788,-0.00115860,0.00076439,-0.00074566,0.002260
 10,0.00067268,0.00122886,0.00206215,-0.00136219,0.00079310,-0.00094322
 ,0.00078819,0.00096610,0.00215665,0.00126338,-0.00053088,-0.00095291,-
 0.00087489,-0.00088900,0.03433398,0.00010608,0.00105323,0.00781077,-0.
 00051053,-0.00016009,0.00036347,-0.00066112,-0.00066011,0.00052922,-0.
 00033472,0.00099957,0.00053512,0.00090705,-0.00019078,0.43507406,-0.00
 017739,-0.00003927,-0.00024258,0.00027289,-0.00009544,-0.00016758,-0.0
 0025302,0.00009974,0.00020544,0.00020746,-0.00000686,0.00028525,-0.000
 24485,-0.00114901,-0.00001860,0.00005459,0.00000115,0.00002505,0.00002
 184,-0.00005010,0.00012232,-0.00005033,0.00002662,-0.00004320,-0.00022
 655,0.00000357,0.00008310,0.00025404,-0.00003698,-0.00011883,0.0000251
 2,-0.00009017,-0.00003405,-0.00005888,0.00003548,-0.00010335,-0.000031
 57,-0.00007080,-0.00000781,0.00016630,0.00036553,-0.00001102,0.0000264
 8,-0.00000057,0.00000528,0.00001820,-0.00002173,0.00000105,0.00000863,
 -0.00002720,0.00000190,-0.00002166,-0.00001088,-0.00000719,0.00039990,
 0.57031564,-0.00011495,0.00008003,0.00034098,0.00037004,-0.00059432,-0
 .00030468,0.00031008,0.00051301,-0.00045451,-0.00016010,-0.00008064,0.
 00034970,-0.00463343,0.00006286,-0.00125756,-0.00003244,-0.00003523,-0
 .00004816,0.00021847,0.00012095,-0.00009499,-0.00011280,0.00004950,-0.
 00010306,-0.00008669,0.00009920,0.00010528,0.00002827,-0.00015684,0.00
 006657,-0.00007854,0.00006725,0.00007517,0.00028006,-0.00009216,-0.000
 10136,0.00000392,-0.00002980,-0.00004421,0.00188028,0.00001688,0.00043
 571,0.00042734,-0.00002730,-0.00000906,0.00004165,-0.00003342,-0.00005
 691,0.00000995,-0.00001959,0.00004085,0.00003732,0.00004613,-0.0000360
 4,-0.00584595,-0.00025063,0.57030831,-0.00024332,-0.00102454,-0.000932
 83,-0.00018111,0.00123031,0.00086271,-0.00042727,-0.00091035,0.0011399
 2,-0.00002551,0.00090782,-0.00109099,0.01287034,-0.00052411,0.00043692
 ,0.00007712,0.00019733,-0.00013019,-0.00029389,0.00000581,0.00027148,0
 .00014441,-0.00012482,0.00014800,-0.00047600,-0.00017079,-0.00007968,-
 0.00025101,0.00022832,-0.00016215,0.00015902,-0.00016337,-0.00016212,-
 0.00059524,-0.00021050,-0.00001639,0.00011185,0.00011689,0.00011156,-0
 .00537677,-0.00010677,-0.00015383,-0.00129266,0.00010404,0.00002225,-0
 .00006760,0.00010053,0.00011278,-0.00009147,0.00004753,-0.00016306,-0.
 00012831,-0.00016115,0.00003630,-0.06799362,-0.08754249,0.02980108,0.0
 7401864,0.00007407,0.00042557,0.00030706,0.00009836,-0.00039379,-0.000
 33250,0.00012212,0.00038934,-0.00043320,0.00009034,-0.00027270,0.00032
 445,-0.00443071,0.00064691,-0.00041877,-0.00000493,-0.00008384,0.00006
 315,0.00012370,-0.00005726,-0.00005426,-0.00006273,0.00004342,-0.00003
 306,0.00012475,0.00004031,0.00008015,0.00018487,-0.00010752,0.00003069
 ,-0.00005170,0.00006018,0.00005312,0.00005396,0.00009844,-0.00001225,-
 0.00006184,-0.00003092,-0.00004707,0.00165800,-0.00027365,0.00021355,0
 .00040843,-0.00000126,-0.00002555,0.00001357,-0.00003568,-0.00003259,0
 .00002627,-0.00001739,0.00005450,0.00001709,0.00004610,-0.00000693,-0.
 08510002,-0.27845795,0.07620666,0.09213122,0.29578046,-0.00005134,-0.0
 0018366,-0.00018348,-0.00008340,0.00009933,0.00009662,-0.00003891,-0.0
 0017810,0.00020053,0.00000767,0.00014029,-0.00024711,0.00206683,-0.000
 35789,-0.00015365,0.00001566,0.00003280,-0.00002786,-0.00005605,-0.000
 02078,0.00007420,0.00004434,-0.00001536,0.00001406,0.00006474,0.000034
 06,-0.00003612,-0.00011380,0.00003403,-0.00004023,0.00001809,-0.000018
 09,-0.00002063,-0.00014044,-0.00000397,0.00007636,0.00000573,0.0000261
 0,0.00003490,-0.00079076,0.00016481,0.00011633,-0.00019490,-0.00000615
 ,-0.00002125,-0.00001277,0.00001602,0.00002213,-0.00000860,0.00001237,
 -0.00002116,-0.00001059,-0.00001939,0.00001401,0.02898890,0.07611862,-
 0.07529999,-0.03090997,-0.08366620,0.07304285,-0.00155289,-0.00720148,
 -0.00554137,-0.00225254,0.00790359,0.00641273,-0.00238987,-0.00615296,
 0.00722841,-0.00174209,0.00553633,-0.00793565,0.09043595,-0.00142125,0
 .00213509,0.00039910,0.00123051,-0.00104298,-0.00185505,0.00036014,0.0
 0136562,0.00122124,-0.00072998,0.00092491,-0.00218332,-0.00064493,-0.0
 0111609,-0.00199352,0.00126975,-0.00077944,0.00097798,-0.00095305,-0.0
 0094772,-0.00208278,-0.00113604,0.00051704,0.00099104,0.00103380,0.000
 84906,-0.04869612,-0.00008017,-0.00158063,-0.00934277,0.00064889,0.000
 23034,-0.00056413,0.00073880,0.00072327,-0.00075900,0.00038646,-0.0011
 2211,-0.00076898,-0.00099822,0.00021027,-0.20510729,0.00022530,-0.0078
 9981,-0.01783956,0.00455302,-0.00237034,0.23985866,0.00010712,-0.00024
 173,-0.00009994,-0.00008051,-0.00030674,-0.00013325,0.00007911,-0.0002
 0953,0.00008472,-0.00007061,-0.00022714,0.00014432,-0.00041082,-0.0014
 4698,0.00000204,-0.00008566,0.00000064,-0.00006546,-0.00018844,0.00003
 778,-0.00011988,0.00002613,-0.00000875,-0.00007972,0.00027579,0.000038
 04,-0.00016458,-0.00027707,0.00003482,0.00016051,-0.00000494,-0.000019
 96,0.00004953,0.00026675,0.00004633,0.00017209,-0.00000406,-0.00002282
 ,0.00004835,0.00038528,0.00179018,0.00001564,0.00001688,-0.00021377,-0
 .00000194,-0.00003967,0.00001842,0.00001194,-0.00001240,0.00000498,-0.
 00000700,0.00006041,0.00002939,-0.00000502,-0.00024289,-0.03419597,0.0
 0016220,-0.02440333,-0.00005813,-0.00126376,-0.00004499,0.03559604,0.0
 0000856,-0.00042398,-0.00044807,-0.00016537,0.00021946,0.00003803,-0.0
 0017878,-0.00014643,0.00003381,0.00003764,0.00033856,-0.00061264,0.003
 79545,-0.00006423,-0.00135536,0.00000249,0.00001869,-0.00004426,-0.000
 31917,-0.00011372,0.00008042,0.00004831,-0.00008814,0.00000751,0.00018
 660,-0.00021639,0.00000154,0.00016786,0.00021185,0.00002488,0.00008721
 ,0.00003399,-0.00004226,-0.00033555,0.00010014,0.00004085,0.00000061,0
 .00011345,0.00002755,-0.00187617,-0.00000755,0.00173874,-0.00038181,0.
 00003022,-0.00020574,-0.00006565,0.00004830,0.00004887,0.00002049,0.00
 000514,-0.00001713,-0.00004811,-0.00004948,0.00001591,-0.00868769,0.00
 017059,-0.03474154,0.00784402,0.00005006,-0.00004005,0.00982441,-0.000
 05798,0.03609161,0.00000154,-0.00109134,-0.00085736,-0.00042460,0.0012
 3914,0.00100390,-0.00028111,-0.00104091,0.00100026,-0.00021339,0.00075
 524,-0.00127048,0.01311683,0.00007097,0.00055748,-0.00000694,0.0001897
 6,-0.00013785,-0.00053659,0.00005606,0.00017720,0.00020368,-0.00012944
 ,0.00014981,-0.00028538,-0.00013538,-0.00022740,-0.00039571,0.00028313
 ,-0.00003069,0.00014679,-0.00011266,-0.00014074,-0.00035563,-0.0001310
 9,0.00014206,0.00013159,0.00018455,0.00015008,-0.00551245,0.00002502,-
 0.00013390,-0.00131979,0.00007525,0.00001833,-0.00010008,0.00012522,0.
 00012008,-0.00009672,0.00006438,-0.00016522,-0.00009441,-0.00014750,0.
 00003871,-0.06986235,0.07254066,0.06157717,0.00438580,-0.00842240,-0.0
 0778014,-0.01825145,0.01972903,0.01620874,0.07613589,-0.00005927,-0.00
 030584,-0.00019439,-0.00009055,0.00041233,0.00032595,-0.00009563,-0.00
 031573,0.00033130,-0.00008674,0.00025777,-0.00028581,0.00374347,0.0002
 0623,0.00059046,0.00000913,0.00007696,-0.00004286,-0.00003999,0.000067
 58,0.00003292,0.00005007,-0.00003834,0.00005113,-0.00016998,-0.0000553
 1,-0.00004789,-0.00012919,0.00009301,-0.00002999,0.00004393,-0.0000384
 1,-0.00004588,-0.00008471,-0.00010678,-0.00003210,0.00006091,0.0000288
 4,0.00002525,-0.00142483,-0.00011692,-0.00029226,-0.00034367,0.0000273
 4,0.00003245,-0.00000685,0.00003030,0.00002391,-0.00002309,0.00001704,
 -0.00004594,-0.00001890,-0.00004030,0.00000538,0.07062919,-0.19768807,
 -0.12406894,0.01092930,-0.01585167,-0.01747144,-0.00368504,-0.00022516
 ,-0.00006769,-0.07643887,0.20716705,-0.00005319,-0.00025415,-0.0002747
 2,-0.00009637,0.00039682,0.00034379,-0.00010809,-0.00022071,0.00030245
 ,-0.00006581,0.00025789,-0.00040668,0.00382221,0.00045664,0.00021311,0
 .00003787,0.00004120,-0.00001359,-0.00011315,-0.00001638,0.00012356,0.
 00005756,-0.00003272,0.00004883,-0.00017612,-0.00001523,-0.00009184,-0
 .00003340,0.00000126,-0.00007484,0.00004133,-0.00004527,-0.00005713,-0
 .00012733,-0.00004719,0.00005246,0.00003611,0.00005454,0.00005235,-0.0
 0148019,-0.00025675,-0.00007851,-0.00035298,0.00005089,0.00000502,-0.0
 0001263,0.00002573,0.00003430,-0.00001845,0.00001015,-0.00004375,-0.00
 002582,-0.00004360,0.00001078,0.05993726,-0.12397350,-0.15401072,-0.00
 425626,0.00815961,0.00775452,-0.00400797,0.00103439,0.00038913,-0.0644
 1338,0.13611061,0.15946661,-0.00026841,-0.00116735,-0.00079174,-0.0001
 6377,0.00106597,0.00106466,-0.00013647,-0.00087009,0.00112800,-0.00032
 125,0.00090737,-0.00120862,0.01308793,-0.00011061,-0.00008657,0.000052
 86,0.00020755,-0.00020065,-0.00025746,0.00009972,0.00022443,0.00016105
 ,-0.00009635,0.00010298,-0.00052684,0.00001839,-0.00025599,-0.00054257
 ,0.00011129,-0.00017473,0.00009276,-0.00014381,-0.00015116,-0.00029314
 ,-0.00024213,0.00008157,0.00016360,0.00015872,0.00014576,-0.00543901,-
 0.00000701,-0.00022937,-0.00130650,0.00008352,0.00004538,-0.00006256,0
 .00011205,0.00010189,-0.00012260,0.00006004,-0.00018085,-0.00009572,-0
 .00015075,0.00002131,-0.05769839,0.01438533,-0.07602091,0.00351617,-0.
 00154544,0.01135004,-0.01650260,0.00491888,-0.02617407,0.00361449,-0.0
 0276872,0.01140880,0.06304843,-0.00002752,-0.00010458,-0.00004995,-0.0
 0005949,-0.00000178,-0.00001642,0.00001545,-0.00013172,0.00008485,0.00
 000429,0.00006260,-0.00009005,0.00077485,-0.00029269,-0.00016340,-0.00
 000459,0.00002871,-0.00003073,0.00000352,0.00001233,0.00000644,0.00002
 089,-0.00001169,0.00000568,0.00012529,0.00000123,0.00003077,-0.0001344
 4,0.00007088,-0.00000591,0.00000464,0.00001107,0.00000302,-0.00007948,
 -0.00001117,0.00001310,0.00000632,0.00000779,0.00000579,-0.00027929,0.
 00018201,0.00009889,-0.00007179,-0.00002383,-0.00001527,-0.00000626,0.
 00001024,0.00000595,-0.00000323,0.00001268,-0.00000664,0.00000099,-0.0
 0000360,0.00000800,0.01392059,-0.05890669,0.04796420,0.00934312,-0.001
 88897,0.02652635,-0.00083848,-0.00041995,-0.00010486,-0.00768885,0.006
 39811,-0.02169425,-0.01502657,0.05499902,0.00006781,0.00035007,0.00031
 323,0.00009545,-0.00033171,-0.00027881,0.00010974,0.00023656,-0.000274
 07,0.00006726,-0.00030066,0.00044081,-0.00390469,-0.00012456,0.0005437
 2,-0.00002278,-0.00005304,0.00003884,0.00014873,0.00000521,-0.00010474
 ,-0.00005608,0.00004335,-0.00003154,0.00007768,0.00004862,0.00006050,0
 .00001941,-0.00006312,0.00004490,-0.00005146,0.00002504,0.00005297,0.0
 0017294,0.00005271,-0.00004430,-0.00003773,-0.00006256,-0.00004973,0.0
 0142959,0.00009299,-0.00028345,0.00034719,-0.00003210,0.00002465,0.000
 01326,-0.00002926,-0.00003235,0.00001058,-0.00001200,0.00004075,0.0000
 2086,0.00004230,-0.00000965,-0.07351439,0.04795972,-0.30515979,-0.0027
 2954,-0.00048065,-0.00535498,0.00392297,0.00011281,-0.00103179,-0.0059
 8666,0.00509583,-0.01374513,0.07979984,-0.05257556,0.32483994\\-0.0000
 0279,-0.00000340,0.00000561,-0.00000009,0.00000413,0.00000197,-0.00000
 286,-0.00000087,-0.00000058,-0.00000111,-0.00000213,0.00000291,0.00000
 022,-0.00000028,0.00000031,0.00000164,-0.00000165,0.00000076,-0.000000
 42,-0.00000083,0.00000068,0.00000009,0.00000074,-0.00000082,0.00000009
 ,0.00000237,-0.00000214,0.00000025,0.00000108,0.00000141,0.00000197,0.
 00000187,0.00000248,0.00000020,-0.00000198,-0.00000145,-0.00000021,-0.
 00000064,-0.00000054,0.00000313,0.00000167,-0.00000944,-0.00000040,-0.
 00000116,-0.00000077,0.00000048,0.00000232,-0.00000078,-0.00000004,-0.
 00000062,-0.00000018,-0.00000024,-0.00000062,0.00000154,0.00000057,-0.
 00000491,-0.00000402,0.00000046,0.00000383,0.00000274,0.00000011,-0.00
 000133,-0.00000047,-0.00000110,0.00000115,0.00000387,0.00000006,0.0000
 0127,-0.00000309\\\@


 A MAN IS NEVER SO BRILLIANT AS WHEN HE TAKES THE WORDS RIGHT OUT
 OF YOUR MOUTH. -- ARNOT SHEPPARD, JR.
 Job cpu time:       0 days  1 hours  1 minutes 31.2 seconds.
 File lengths (MBytes):  RWF=    219 Int=      0 D2E=      0 Chk=      6 Scr=      1
 Normal termination of Gaussian 09 at Tue Dec 25 15:46:03 2018.
